 Gaussian 09, Revision B.01,
 Gaussian 09:  EM64L-G09RevB.01 12-Aug-2010

 ----------------------------
 #B3LYP/6-31G* fopt test freq
 ----------------------------

 ----------------------------------------------
 AsymmetricEnantiomers/r-2-chlorobutane_tmp.xyz
 ----------------------------------------------
 Symbolic Z-matrix:
 Charge =  0 Multiplicity = 1

 SCF Done:  E(RB3LYP) =  -618.053928165     A.U. after   12 cycles
 SCF Done:  E(RB3LYP) =  -618.056545361     A.U. after   11 cycles
 SCF Done:  E(RB3LYP) =  -618.057019925     A.U. after   10 cycles
 SCF Done:  E(RB3LYP) =  -618.057069571     A.U. after   11 cycles
 SCF Done:  E(RB3LYP) =  -618.057080415     A.U. after    9 cycles
 SCF Done:  E(RB3LYP) =  -618.057081944     A.U. after    8 cycles
 Optimization completed.
    -- Stationary point found.
 Normal termination of Gaussian 09 at Mon Jan 22 17:36:08 2018.

 ----------------------------------------------------------------------
 #N Geom=AllCheck Guess=TCheck SCRF=Check Test GenChk RB3LYP/6-31G(d) F
 req
 ----------------------------------------------------------------------

 AsymmetricEnantiomers/r-2-chlorobutane_tmp.xyz
 ----------------------------------------------
 Redundant internal coordinates taken from checkpoint file:
 /home/g09scr/Gau-3189.chk
 Charge =  0 Multiplicity = 1

                         Standard orientation:
 ---------------------------------------------------------------------
 Center     Atomic      Atomic             Coordinates (Angstroms)
 Number     Number       Type             X           Y           Z
 ---------------------------------------------------------------------
      1          6           0       -0.259559    0.450548    0.358387
      2          6           0       -1.317101    1.483366   -0.009142
      3          1           0       -2.267656    1.272738    0.488497
      4          1           0       -1.488836    1.499153   -1.090387
      5          1           0       -0.977844    2.479710    0.301201
      6         17           0       -0.900030   -1.225613   -0.069226
      7          1           0       -0.127535    0.409985    1.443712
      8          6           0        1.086465    0.689227   -0.325749
      9          1           0        0.945926    0.628673   -1.412437
     10          6           0        2.213021   -0.245815    0.118747
     11          1           0        1.366490    1.729891   -0.104815
     12          1           0        1.980517   -1.287529   -0.121206
     13          1           0        2.381177   -0.178062    1.200587
     14          1           0        3.151306    0.016905   -0.381760
 ---------------------------------------------------------------------

 SCF Done:  E(RB3LYP) =  -618.057081944     A.U. after    1 cycles

 The electronic state is 1-A.
 Alpha  occ. eigenvalues -- -101.52189 -10.25111 -10.19655 -10.19035 -10.17865
 Alpha  occ. eigenvalues --   -9.43839  -7.20196  -7.19272  -7.19266  -0.85560
 Alpha  occ. eigenvalues --   -0.76850  -0.73187  -0.64141  -0.57971  -0.47840
 Alpha  occ. eigenvalues --   -0.44709  -0.43984  -0.42401  -0.38702  -0.36903
 Alpha  occ. eigenvalues --   -0.35601  -0.34906  -0.34267  -0.28812  -0.28737
 Alpha virt. eigenvalues --    0.02665   0.08658   0.11821   0.12312   0.15322
 Alpha virt. eigenvalues --    0.16010   0.16865   0.17544   0.17799   0.19235
 Alpha virt. eigenvalues --    0.22190   0.23365   0.24571   0.40211   0.44191

 Mulliken atomic charges:
              1
     1  C   -0.186598
     2  C   -0.434340
     3  H    0.168768
     4  H    0.165764
     5  H    0.152216
     6  Cl  -0.117333
     7  H    0.180822
     8  C   -0.242888
     9  H    0.155031
    10  C   -0.447635
    11  H    0.143370
    12  H    0.172687
    13  H    0.142976
    14  H    0.147159
 Sum of Mulliken atomic charges =   0.00000

 Dipole moment (field-independent basis, Debye):
    X=              0.8875    Y=              2.1179    Z=              0.3750  Tot=              2.3268
 Quadrupole moment (field-independent basis, Debye-Ang):
   XX=            -39.6683   YY=            -40.1437   ZZ=            -38.9637
   XY=             -1.3946   XZ=             -0.3157   YZ=              0.3260

  Exact polarizability:  55.845   2.388  58.850   0.321   1.436  44.396
 Approx polarizability:  67.863   7.828  83.183   1.119   4.083  63.973

                     1                      2                      3
                     A                      A                      A
 Frequencies --   115.2921               216.1027               233.6598
 Red. masses --     1.8527                 1.9502                 1.3341
 Frc consts  --     0.0145                 0.0537                 0.0429
 IR Inten    --     0.2231                 1.2694                 0.0739

                     4                      5                      6
                     A                      A                      A
 Frequencies --   253.1380               325.5277               387.7246
 Red. masses --     1.1841                 2.6735                 2.5938
 Frc consts  --     0.0447                 0.1669                 0.2297
 IR Inten    --     0.1959                 1.5533                 3.1401

                     7                      8                      9
                     A                      A                      A
 Frequencies --   460.1478               601.2260               805.2261
 Red. masses --     2.9583                 3.4080                 1.2225
 Frc consts  --     0.3690                 0.7258                 0.4670
 IR Inten    --     1.5403                29.6548                12.5557

                    10                     11                     12
                     A                      A                      A
 Frequencies --   854.0100               980.9114              1016.9583
 Red. masses --     2.0297                 1.4042                 1.3405
 Frc consts  --     0.8722                 0.7960                 0.8168
 IR Inten    --     8.6352                 7.3770                 8.9598

                    13                     14                     15
                     A                      A                      A
 Frequencies --  1041.2460              1108.1516              1136.2744
 Red. masses --     2.5898                 1.4156                 2.2401
 Frc consts  --     1.6543                 1.0242                 1.7040
 IR Inten    --     1.3050                 3.8451                 2.8672

                    16                     17                     18
                     A                      A                      A
 Frequencies --  1190.6178              1280.0987              1336.6561
 Red. masses --     2.0240                 1.2453                 1.2371
 Frc consts  --     1.6904                 1.2023                 1.3023
 IR Inten    --     7.8860                17.4737                13.0080

                    19                     20                     21
                     A                      A                      A
 Frequencies --  1344.4760              1414.6281              1440.1607
 Red. masses --     1.2011                 1.4993                 1.2504
 Frc consts  --     1.2792                 1.7678                 1.5280
 IR Inten    --    12.2598                 0.2597                 3.0403

                    22                     23                     24
                     A                      A                      A
 Frequencies --  1443.4332              1503.7852              1516.3734
 Red. masses --     1.2496                 1.0739                 1.0470
 Frc consts  --     1.5340                 1.4308                 1.4185
 IR Inten    --     5.2297                 0.5349                 6.0257

                    25                     26                     27
                     A                      A                      A
 Frequencies --  1526.2737              1527.9919              1537.1609
 Red. masses --     1.0475                 1.0414                 1.0549
 Frc consts  --     1.4377                 1.4325                 1.4686
 IR Inten    --     0.6204                 8.6730                 5.7550

                    28                     29                     30
                     A                      A                      A
 Frequencies --  3028.9349              3052.3744              3053.0441
 Red. masses --     1.0645                 1.0388                 1.0392
 Frc consts  --     5.7539                 5.7024                 5.7069
 IR Inten    --    20.2013                31.1226                15.1975

                    31                     32                     33
                     A                      A                      A
 Frequencies --  3074.4982              3098.6553              3116.2004
 Red. masses --     1.0944                 1.0893                 1.1010
 Frc consts  --     6.0949                 6.1622                 6.2994
 IR Inten    --     5.1364                 8.5840                34.3844

                    34                     35                     36
                     A                      A                      A
 Frequencies --  3122.8908              3138.2499              3146.0843
 Red. masses --     1.0978                 1.1016                 1.1031
 Frc consts  --     6.3082                 6.3919                 6.4329
 IR Inten    --    31.1023                24.3087                21.3124

 - Thermochemistry -
 -------------------
 Temperature   298.150 Kelvin.  Pressure   1.00000 Atm.
 Atom     1 has atomic number  6 and mass  12.00000

 Molecular mass:    92.03928 amu.
 Principal axes and moments of inertia in atomic units:
                           1         2         3
     Eigenvalues --   398.86390 589.37280 913.88880
           X            0.98818  -0.15330   0.00009
           Y            0.15330   0.98814  -0.00925
           Z            0.00133   0.00915   0.99996
 This molecule is an asymmetric top.
 Rotational symmetry number  1.
 Rotational temperatures (Kelvin)      0.21715     0.14696     0.09478
 Rotational constants (GHZ):           4.52470     3.06214     1.97479
 Zero-point vibrational energy     325552.8 (Joules/Mol)
                                   77.80900 (Kcal/Mol)
 Warning -- explicit consideration of   8 degrees of freedom as
           vibrations may cause significant error
 Vibrational temperatures:    165.88   310.92   336.18   364.21   468.36
          (Kelvin)            557.85   662.05   865.03  1158.54  1228.73
                             1411.31  1463.17  1498.12  1594.38  1634.84
                             1713.03  1841.77  1923.15  1934.40  2035.33
                             2072.07  2076.78  2163.61  2181.72  2195.96
                             2198.44  2211.63  4357.96  4391.68  4392.64
                             4423.51  4458.27  4483.51  4493.14  4515.24
                             4526.51

 Zero-point correction=                           0.123997 (Hartree/Particle)
 Thermal correction to Energy=                    0.130571
 Thermal correction to Enthalpy=                  0.131515
 Thermal correction to Gibbs Free Energy=         0.093723
 Sum of electronic and zero-point Energies=           -617.933085
 Sum of electronic and thermal Energies=              -617.926511
 Sum of electronic and thermal Enthalpies=            -617.925567
 Sum of electronic and thermal Free Energies=         -617.963359

                     E (Thermal)             CV                S
                      KCal/Mol        Cal/Mol-Kelvin    Cal/Mol-Kelvin
 Total                   81.934             22.833             79.541
 Electronic               0.000              0.000              0.000
 Translational            0.889              2.981             39.471
 Rotational               0.889              2.981             26.866
 Vibrational             80.157             16.872             13.205
 Vibration     1          0.608              1.937              3.178
 Vibration     2          0.645              1.816              1.992
 Vibration     3          0.654              1.789              1.851
 Vibration     4          0.664              1.757              1.709
 Vibration     5          0.710              1.624              1.282
 Vibration     6          0.756              1.496              1.009
 Vibration     7          0.818              1.338              0.766
 Vibration     8          0.959              1.029              0.448

 Optimization completed.
    -- Stationary point found.
 Normal termination of Gaussian 09 at Mon Jan 22 17:36:33 2018.
