 Gaussian 09, Revision B.01,
 Gaussian 09:  EM64L-G09RevB.01 12-Aug-2010

 ----------------------------
 #B3LYP/6-31G* fopt test freq
 ----------------------------

 ------------------------------------------
 AsymmetricEnantiomers/s-2-chlorobutane.xyz
 ------------------------------------------
 Symbolic Z-matrix:
 Charge =  0 Multiplicity = 1

 SCF Done:  E(RB3LYP) =  -618.053926098     A.U. after   12 cycles
 SCF Done:  E(RB3LYP) =  -618.056541615     A.U. after   11 cycles
 SCF Done:  E(RB3LYP) =  -618.057020324     A.U. after   10 cycles
 SCF Done:  E(RB3LYP) =  -618.057069861     A.U. after   11 cycles
 SCF Done:  E(RB3LYP) =  -618.057080412     A.U. after    9 cycles
 SCF Done:  E(RB3LYP) =  -618.057081943     A.U. after    8 cycles
 Optimization completed.
    -- Stationary point found.
 Normal termination of Gaussian 09 at Mon Jan 22 17:36:55 2018.

 ----------------------------------------------------------------------
 #N Geom=AllCheck Guess=TCheck SCRF=Check Test GenChk RB3LYP/6-31G(d) F
 req
 ----------------------------------------------------------------------

 AsymmetricEnantiomers/s-2-chlorobutane.xyz
 ------------------------------------------
 Redundant internal coordinates taken from checkpoint file:
 /home/g09scr/Gau-3495.chk
 Charge =  0 Multiplicity = 1

                         Standard orientation:
 ---------------------------------------------------------------------
 Center     Atomic      Atomic             Coordinates (Angstroms)
 Number     Number       Type             X           Y           Z
 ---------------------------------------------------------------------
      1          6           0        0.259548    0.450553    0.358387
      2          6           0        1.317087    1.483377   -0.009138
      3          1           0        2.267637    1.272760    0.488512
      4          1           0        0.977820    2.479722    0.301196
      5          1           0        1.488832    1.499155   -1.090381
      6          1           0        0.127519    0.409985    1.443712
      7         17           0        0.900049   -1.225605   -0.069226
      8          6           0       -1.086472    0.689211   -0.325760
      9          1           0       -1.366509    1.729876   -0.104850
     10          6           0       -2.213027   -0.245829    0.118753
     11          1           0       -0.945926    0.628632   -1.412448
     12          1           0       -2.381179   -0.178056    1.200591
     13          1           0       -1.980522   -1.287547   -0.121183
     14          1           0       -3.151312    0.016885   -0.381758
 ---------------------------------------------------------------------

 SCF Done:  E(RB3LYP) =  -618.057081943     A.U. after    1 cycles

 The electronic state is 1-A.
 Alpha  occ. eigenvalues -- -101.52189 -10.25111 -10.19655 -10.19035 -10.17865
 Alpha  occ. eigenvalues --   -9.43839  -7.20196  -7.19272  -7.19266  -0.85559
 Alpha  occ. eigenvalues --   -0.76850  -0.73187  -0.64141  -0.57971  -0.47840
 Alpha  occ. eigenvalues --   -0.44709  -0.43984  -0.42401  -0.38702  -0.36902
 Alpha  occ. eigenvalues --   -0.35601  -0.34906  -0.34267  -0.28812  -0.28737
 Alpha virt. eigenvalues --    0.02665   0.08658   0.11821   0.12312   0.15322
 Alpha virt. eigenvalues --    0.16010   0.16865   0.17544   0.17799   0.19235
 Alpha virt. eigenvalues --    0.22190   0.23365   0.24571   0.40211   0.44191

 Mulliken atomic charges:
              1
     1  C   -0.186597
     2  C   -0.434340
     3  H    0.168769
     4  H    0.152216
     5  H    0.165765
     6  H    0.180822
     7  Cl  -0.117337
     8  C   -0.242889
     9  H    0.143371
    10  C   -0.447635
    11  H    0.155032
    12  H    0.142976
    13  H    0.172687
    14  H    0.147159
 Sum of Mulliken atomic charges =   0.00000

 Dipole moment (field-independent basis, Debye):
    X=             -0.8875    Y=              2.1179    Z=              0.3750  Tot=              2.3268
 Quadrupole moment (field-independent basis, Debye-Ang):
   XX=            -39.6683   YY=            -40.1437   ZZ=            -38.9637
   XY=              1.3946   XZ=              0.3157   YZ=              0.3260

  Exact polarizability:  55.845  -2.389  58.850  -0.321   1.436  44.396
 Approx polarizability:  67.863  -7.828  83.183  -1.119   4.083  63.973

                     1                      2                      3
                     A                      A                      A
 Frequencies --   115.2939               216.1013               233.6584
 Red. masses --     1.8527                 1.9501                 1.3341
 Frc consts  --     0.0145                 0.0537                 0.0429
 IR Inten    --     0.2231                 1.2694                 0.0739

                     4                      5                      6
                     A                      A                      A
 Frequencies --   253.1397               325.5280               387.7252
 Red. masses --     1.1842                 2.6735                 2.5939
 Frc consts  --     0.0447                 0.1669                 0.2297
 IR Inten    --     0.1959                 1.5534                 3.1405

                     7                      8                      9
                     A                      A                      A
 Frequencies --   460.1476               601.2187               805.2251
 Red. masses --     2.9583                 3.4080                 1.2225
 Frc consts  --     0.3690                 0.7258                 0.4670
 IR Inten    --     1.5405                29.6560                12.5555

                    10                     11                     12
                     A                      A                      A
 Frequencies --   854.0084               980.9104              1016.9576
 Red. masses --     2.0297                 1.4042                 1.3405
 Frc consts  --     0.8722                 0.7961                 0.8168
 IR Inten    --     8.6349                 7.3770                 8.9597

                    13                     14                     15
                     A                      A                      A
 Frequencies --  1041.2421              1108.1493              1136.2736
 Red. masses --     2.5897                 1.4156                 2.2401
 Frc consts  --     1.6543                 1.0242                 1.7040
 IR Inten    --     1.3047                 3.8450                 2.8671

                    16                     17                     18
                     A                      A                      A
 Frequencies --  1190.6177              1280.0964              1336.6559
 Red. masses --     2.0240                 1.2453                 1.2371
 Frc consts  --     1.6904                 1.2023                 1.3022
 IR Inten    --     7.8862                17.4747                13.0099

                    19                     20                     21
                     A                      A                      A
 Frequencies --  1344.4744              1414.6297              1440.1596
 Red. masses --     1.2011                 1.4993                 1.2504
 Frc consts  --     1.2792                 1.7678                 1.5280
 IR Inten    --    12.2573                 0.2597                 3.0395

                    22                     23                     24
                     A                      A                      A
 Frequencies --  1443.4308              1503.7845              1516.3737
 Red. masses --     1.2496                 1.0739                 1.0470
 Frc consts  --     1.5340                 1.4308                 1.4185
 IR Inten    --     5.2304                 0.5349                 6.0258

                    25                     26                     27
                     A                      A                      A
 Frequencies --  1526.2725              1527.9910              1537.1605
 Red. masses --     1.0475                 1.0414                 1.0549
 Frc consts  --     1.4377                 1.4325                 1.4686
 IR Inten    --     0.6204                 8.6726                 5.7552

                    28                     29                     30
                     A                      A                      A
 Frequencies --  3028.9416              3052.3789              3053.0390
 Red. masses --     1.0645                 1.0388                 1.0392
 Frc consts  --     5.7539                 5.7024                 5.7069
 IR Inten    --    20.1952                31.2526                15.0743

                    31                     32                     33
                     A                      A                      A
 Frequencies --  3074.4872              3098.6490              3116.2022
 Red. masses --     1.0944                 1.0893                 1.1010
 Frc consts  --     6.0948                 6.1621                 6.2994
 IR Inten    --     5.1381                 8.5861                34.3784

                    34                     35                     36
                     A                      A                      A
 Frequencies --  3122.8868              3138.2482              3146.0969
 Red. masses --     1.0978                 1.1016                 1.1031
 Frc consts  --     6.3081                 6.3919                 6.4330
 IR Inten    --    31.1052                24.3099                21.3072

 - Thermochemistry -
 -------------------
 Temperature   298.150 Kelvin.  Pressure   1.00000 Atm.
 Atom     1 has atomic number  6 and mass  12.00000

 Molecular mass:    92.03928 amu.
 Principal axes and moments of inertia in atomic units:
                           1         2         3
     Eigenvalues --   398.86311 589.37740 913.89158
           X            0.98818   0.15330  -0.00009
           Y           -0.15329   0.98814  -0.00925
           Z           -0.00133   0.00915   0.99996
 This molecule is an asymmetric top.
 Rotational symmetry number  1.
 Rotational temperatures (Kelvin)      0.21715     0.14696     0.09477
 Rotational constants (GHZ):           4.52471     3.06211     1.97479
 Zero-point vibrational energy     325552.7 (Joules/Mol)
                                   77.80895 (Kcal/Mol)
 Warning -- explicit consideration of   8 degrees of freedom as
           vibrations may cause significant error
 Vibrational temperatures:    165.88   310.92   336.18   364.21   468.36
          (Kelvin)            557.85   662.05   865.02  1158.54  1228.73
                             1411.31  1463.17  1498.11  1594.38  1634.84
                             1713.03  1841.77  1923.15  1934.40  2035.33
                             2072.07  2076.77  2163.61  2181.72  2195.96
                             2198.44  2211.63  4357.97  4391.69  4392.64
                             4423.50  4458.26  4483.51  4493.13  4515.23
                             4526.53

 Zero-point correction=                           0.123996 (Hartree/Particle)
 Thermal correction to Energy=                    0.130571
 Thermal correction to Enthalpy=                  0.131515
 Thermal correction to Gibbs Free Energy=         0.093722
 Sum of electronic and zero-point Energies=           -617.933085
 Sum of electronic and thermal Energies=              -617.926511
 Sum of electronic and thermal Enthalpies=            -617.925567
 Sum of electronic and thermal Free Energies=         -617.963359

                     E (Thermal)             CV                S
                      KCal/Mol        Cal/Mol-Kelvin    Cal/Mol-Kelvin
 Total                   81.934             22.833             79.541
 Electronic               0.000              0.000              0.000
 Translational            0.889              2.981             39.471
 Rotational               0.889              2.981             26.866
 Vibrational             80.157             16.872             13.205
 Vibration     1          0.608              1.937              3.178
 Vibration     2          0.645              1.817              1.992
 Vibration     3          0.654              1.789              1.851
 Vibration     4          0.664              1.757              1.709
 Vibration     5          0.710              1.624              1.282
 Vibration     6          0.756              1.496              1.009
 Vibration     7          0.818              1.338              0.766
 Vibration     8          0.959              1.029              0.448

 Optimization completed.
    -- Stationary point found.
 Normal termination of Gaussian 09 at Mon Jan 22 17:37:20 2018.
