 Gaussian 09, Revision B.01,
 Gaussian 09:  EM64L-G09RevB.01 12-Aug-2010

 -----------------------
 #B3LYP/6-31G* fopt test
 -----------------------

 --------------------------
 Sugars/R-R-S-Fructuose.xyz
 --------------------------
 Symbolic Z-matrix:
 Charge =  0 Multiplicity = 1

 SCF Done:  E(RB3LYP) =  -687.090719877     A.U. after   14 cycles
 SCF Done:  E(RB3LYP) =  -687.098966533     A.U. after   14 cycles
 SCF Done:  E(RB3LYP) =  -687.102837955     A.U. after   13 cycles
 SCF Done:  E(RB3LYP) =  -687.104772370     A.U. after   13 cycles
 SCF Done:  E(RB3LYP) =  -687.108197944     A.U. after   12 cycles
 SCF Done:  E(RB3LYP) =  -687.111248698     A.U. after   13 cycles
 SCF Done:  E(RB3LYP) =  -687.115125238     A.U. after   14 cycles
 SCF Done:  E(RB3LYP) =  -687.116856462     A.U. after   12 cycles
 SCF Done:  E(RB3LYP) =  -687.119859114     A.U. after   15 cycles
 SCF Done:  E(RB3LYP) =  -687.121897807     A.U. after   13 cycles
 SCF Done:  E(RB3LYP) =  -687.137624288     A.U. after   12 cycles
 SCF Done:  E(RB3LYP) =  -687.137826881     A.U. after   12 cycles
 SCF Done:  E(RB3LYP) =  -687.137852002     A.U. after   12 cycles
 SCF Done:  E(RB3LYP) =  -687.138036484     A.U. after   11 cycles
 SCF Done:  E(RB3LYP) =  -687.138056488     A.U. after   11 cycles
 SCF Done:  E(RB3LYP) =  -687.138061566     A.U. after   10 cycles
 SCF Done:  E(RB3LYP) =  -687.138062075     A.U. after    8 cycles
 SCF Done:  E(RB3LYP) =  -687.138062248     A.U. after    7 cycles
 SCF Done:  E(RB3LYP) =  -687.138062393     A.U. after    7 cycles
 SCF Done:  E(RB3LYP) =  -687.138062498     A.U. after    7 cycles
 Optimization completed.
    -- Stationary point found.

                         Standard orientation:
 ---------------------------------------------------------------------
 Center     Atomic      Atomic             Coordinates (Angstroms)
 Number     Number       Type             X           Y           Z
 ---------------------------------------------------------------------
      1          6           0       -2.679436   -0.950357    0.267311
      2          8           0       -4.011032   -0.973895   -0.194492
      3          1           0       -4.326258   -1.886475   -0.118132
      4          1           0       -2.034086   -1.705787   -0.205491
      5          1           0       -2.605775   -1.120733    1.357107
      6          6           0       -2.063299    0.402430   -0.015878
      7          8           0       -2.655644    1.288612   -0.605448
      8          6           0       -0.631082    0.686582    0.471618
      9          6           0        0.429156   -0.094952   -0.360377
     10          6           0        1.848395    0.262902    0.108967
     11          6           0        2.910941   -0.164418   -0.901237
     12          1           0        2.870085    0.481950   -1.789769
     13          1           0        2.725254   -1.202478   -1.209229
     14          8           0        4.166620   -0.042987   -0.225929
     15          1           0        4.838165   -0.522869   -0.732170
     16          1           0       -0.530263    0.376931    1.522027
     17          8           0       -0.383791    2.068097    0.355988
     18          1           0       -1.140805    2.412635   -0.162968
     19          1           0        0.304433    0.194407   -1.411206
     20          8           0        0.252751   -1.502186   -0.275169
     21          1           0        0.763786   -1.757427    0.518566
     22          1           0        1.917902    1.342274    0.285561
     23          8           0        2.045736   -0.457066    1.330432
     24          1           0        3.012395   -0.510142    1.440232
 ---------------------------------------------------------------------

 The electronic state is 1-A.
 Alpha  occ. eigenvalues --  -19.17094 -19.15827 -19.15534 -19.15478 -19.15055
 Alpha  occ. eigenvalues --  -19.13992 -10.28145 -10.24830 -10.24579 -10.24336
 Alpha  occ. eigenvalues --  -10.24272 -10.24220  -1.06531  -1.05503  -1.03498
 Alpha  occ. eigenvalues --   -1.02474  -1.01137  -1.00799  -0.77977  -0.75364
 Alpha  occ. eigenvalues --   -0.70854  -0.64860  -0.60504  -0.55691  -0.54726
 Alpha  occ. eigenvalues --   -0.52899  -0.51470  -0.49303  -0.48729  -0.48557
 Alpha  occ. eigenvalues --   -0.47633  -0.46571  -0.44442  -0.43164  -0.41348
 Alpha  occ. eigenvalues --   -0.39663  -0.37263  -0.37060  -0.35819  -0.35355
 Alpha  occ. eigenvalues --   -0.34452  -0.33694  -0.30413  -0.29392  -0.28320
 Alpha  occ. eigenvalues --   -0.27417  -0.26547  -0.25466
 Alpha virt. eigenvalues --   -0.02371   0.04742   0.06493   0.08639   0.10511
 Alpha virt. eigenvalues --    0.11104   0.12446   0.14455   0.14944   0.15524
 Alpha virt. eigenvalues --    0.16469   0.17713   0.18272   0.18917   0.19930

 Mulliken atomic charges:
              1
     1  C   -0.125293
     2  O   -0.594968
     3  H    0.399115
     4  H    0.192591
     5  H    0.143746
     6  C    0.422347
     7  O   -0.447221
     8  C    0.056444
     9  C    0.103764
    10  C    0.110222
    11  C   -0.063813
    12  H    0.139568
    13  H    0.142186
    14  O   -0.636592
    15  H    0.406434
    16  H    0.151009
    17  O   -0.646348
    18  H    0.411636
    19  H    0.143848
    20  O   -0.647606
    21  H    0.412877
    22  H    0.175039
    23  O   -0.669635
    24  H    0.420647
 Sum of Mulliken atomic charges =   0.00000

 Dipole moment (field-independent basis, Debye):
    X=              3.3060    Y=             -3.7056    Z=             -0.2992  Tot=              4.9750
 Quadrupole moment (field-independent basis, Debye-Ang):
   XX=            -64.0640   YY=            -69.1944   ZZ=            -69.2845
   XY=              3.7986   XZ=             -9.6141   YZ=             -2.4403

 Normal termination of Gaussian 09 at Thu Jan  4 16:13:24 2018.
