 Gaussian 09, Revision B.01,
 Gaussian 09:  EM64L-G09RevB.01 12-Aug-2010

 -----------------------
 #B3LYP/6-31G* fopt test
 -----------------------

 --------------------------
 Sugars/S-R-R-Fructuose.xyz
 --------------------------
 Symbolic Z-matrix:
 Charge =  0 Multiplicity = 1

 SCF Done:  E(RB3LYP) =  -687.089214996     A.U. after   14 cycles
 SCF Done:  E(RB3LYP) =  -687.099608854     A.U. after   14 cycles
 SCF Done:  E(RB3LYP) =  -687.103699915     A.U. after   13 cycles
 SCF Done:  E(RB3LYP) =  -687.105108154     A.U. after   13 cycles
 SCF Done:  E(RB3LYP) =  -687.108426717     A.U. after   12 cycles
 SCF Done:  E(RB3LYP) =  -687.112143979     A.U. after   13 cycles
 SCF Done:  E(RB3LYP) =  -687.115000663     A.U. after   12 cycles
 SCF Done:  E(RB3LYP) =  -687.116032725     A.U. after   15 cycles
 SCF Done:  E(RB3LYP) =  -687.116507287     A.U. after   12 cycles
 SCF Done:  E(RB3LYP) =  -687.116655259     A.U. after   12 cycles
 SCF Done:  E(RB3LYP) =  -687.125784245     A.U. after   12 cycles
 SCF Done:  E(RB3LYP) =  -687.125872088     A.U. after   11 cycles
 SCF Done:  E(RB3LYP) =  -687.125894252     A.U. after   10 cycles
 SCF Done:  E(RB3LYP) =  -687.125904099     A.U. after   10 cycles
 SCF Done:  E(RB3LYP) =  -687.125907993     A.U. after    9 cycles
 SCF Done:  E(RB3LYP) =  -687.125910517     A.U. after    8 cycles
 SCF Done:  E(RB3LYP) =  -687.125911617     A.U. after    8 cycles
 SCF Done:  E(RB3LYP) =  -687.125912121     A.U. after    8 cycles
 SCF Done:  E(RB3LYP) =  -687.125912352     A.U. after    8 cycles
 SCF Done:  E(RB3LYP) =  -687.125912501     A.U. after    7 cycles
 Optimization completed.
    -- Stationary point found.

                         Standard orientation:
 ---------------------------------------------------------------------
 Center     Atomic      Atomic             Coordinates (Angstroms)
 Number     Number       Type             X           Y           Z
 ---------------------------------------------------------------------
      1          6           0        2.528197   -1.058663    0.453136
      2          8           0        3.927813   -1.132261    0.319234
      3          1           0        4.195248   -2.039562    0.528533
      4          1           0        2.188330   -1.252196    1.485162
      5          1           0        2.004378   -1.779517   -0.198738
      6          6           0        2.049733    0.321787    0.035819
      7          8           0        2.756741    1.106273   -0.563240
      8          6           0        0.612334    0.730605    0.397178
      9          6           0       -0.407521   -0.292810   -0.140463
     10          6           0       -1.843006    0.168318    0.142545
     11          6           0       -2.898528   -0.721496   -0.510960
     12          1           0       -2.740060   -1.769481   -0.206588
     13          1           0       -2.836845   -0.652015   -1.606824
     14          8           0       -4.155763   -0.239653   -0.036571
     15          1           0       -4.846027   -0.868608   -0.292418
     16          1           0        0.516271    0.729251    1.494255
     17          8           0        0.360556    2.019923   -0.096505
     18          1           0        1.153784    2.252387   -0.620023
     19          1           0       -0.256600   -1.244894    0.395178
     20          8           0       -0.148239   -0.445448   -1.535940
     21          1           0       -0.617622   -1.231169   -1.852763
     22          1           0       -1.962103    1.190429   -0.241367
     23          8           0       -2.003125    0.128009    1.555440
     24          1           0       -2.949889    0.284181    1.712721
 ---------------------------------------------------------------------

 The electronic state is 1-A.
 Alpha  occ. eigenvalues --  -19.16675 -19.16299 -19.15722 -19.15405 -19.14251
 Alpha  occ. eigenvalues --  -19.13247 -10.28191 -10.25320 -10.24953 -10.24580
 Alpha  occ. eigenvalues --  -10.24103 -10.23467  -1.06463  -1.04560  -1.03622
 Alpha  occ. eigenvalues --   -1.02904  -1.01075  -1.00350  -0.78355  -0.75317
 Alpha  occ. eigenvalues --   -0.71260  -0.64879  -0.59011  -0.55749  -0.55417
 Alpha  occ. eigenvalues --   -0.53596  -0.52381  -0.49592  -0.48996  -0.47879
 Alpha  occ. eigenvalues --   -0.47445  -0.45605  -0.43664  -0.42525  -0.41910
 Alpha  occ. eigenvalues --   -0.40606  -0.36656  -0.36546  -0.36050  -0.35198
 Alpha  occ. eigenvalues --   -0.34152  -0.33514  -0.29380  -0.28892  -0.28129
 Alpha  occ. eigenvalues --   -0.26811  -0.26163  -0.25884
 Alpha virt. eigenvalues --   -0.02091   0.03928   0.05315   0.06401   0.09837
 Alpha virt. eigenvalues --    0.11180   0.12782   0.13376   0.14643   0.15352
 Alpha virt. eigenvalues --    0.16672   0.16962   0.17334   0.18992   0.20435

 Mulliken atomic charges:
              1
     1  C   -0.114853
     2  O   -0.592451
     3  H    0.399356
     4  H    0.147127
     5  H    0.157352
     6  C    0.443106
     7  O   -0.440526
     8  C    0.062452
     9  C    0.099710
    10  C    0.132370
    11  C   -0.067088
    12  H    0.117398
    13  H    0.128485
    14  O   -0.631877
    15  H    0.403364
    16  H    0.169263
    17  O   -0.642855
    18  H    0.414662
    19  H    0.117287
    20  O   -0.630744
    21  H    0.399182
    22  H    0.168868
    23  O   -0.651951
    24  H    0.412360
 Sum of Mulliken atomic charges =   0.00000

 Dipole moment (field-independent basis, Debye):
    X=             -3.1546    Y=             -5.9638    Z=              0.1191  Tot=              6.7478
 Quadrupole moment (field-independent basis, Debye-Ang):
   XX=            -66.2066   YY=            -64.2513   ZZ=            -70.6933
   XY=             -1.4727   XZ=              8.1463   YZ=              1.6921

 Normal termination of Gaussian 09 at Thu Jan  4 16:48:24 2018.
