 Gaussian 09, Revision B.01,
 Gaussian 09:  EM64L-G09RevB.01 12-Aug-2010

 -----------------------
 #B3LYP/6-31G* fopt test
 -----------------------

 --------------------------
 Sugars/S-R-S-Fructuose.xyz
 --------------------------
 Symbolic Z-matrix:
 Charge =  0 Multiplicity = 1

 SCF Done:  E(RB3LYP) =  -687.077614828     A.U. after   14 cycles
 SCF Done:  E(RB3LYP) =  -687.087374317     A.U. after   13 cycles
 SCF Done:  E(RB3LYP) =  -687.091696854     A.U. after   13 cycles
 SCF Done:  E(RB3LYP) =  -687.093409405     A.U. after   14 cycles
 SCF Done:  E(RB3LYP) =  -687.096790067     A.U. after   12 cycles
 SCF Done:  E(RB3LYP) =  -687.101315437     A.U. after   13 cycles
 SCF Done:  E(RB3LYP) =  -687.106007180     A.U. after   14 cycles
 SCF Done:  E(RB3LYP) =  -687.108429058     A.U. after   15 cycles
 SCF Done:  E(RB3LYP) =  -687.111500312     A.U. after   13 cycles
 SCF Done:  E(RB3LYP) =  -687.116105617     A.U. after   15 cycles
 SCF Done:  E(RB3LYP) =  -687.132140144     A.U. after   13 cycles
 SCF Done:  E(RB3LYP) =  -687.132528180     A.U. after   14 cycles
 SCF Done:  E(RB3LYP) =  -687.132834175     A.U. after   12 cycles
 SCF Done:  E(RB3LYP) =  -687.132909613     A.U. after   11 cycles
 SCF Done:  E(RB3LYP) =  -687.132972226     A.U. after   12 cycles
 SCF Done:  E(RB3LYP) =  -687.132993481     A.U. after   11 cycles
 SCF Done:  E(RB3LYP) =  -687.133005832     A.U. after   10 cycles
 SCF Done:  E(RB3LYP) =  -687.133008283     A.U. after    9 cycles
 SCF Done:  E(RB3LYP) =  -687.133008883     A.U. after    8 cycles
 SCF Done:  E(RB3LYP) =  -687.133009101     A.U. after    7 cycles
 Optimization completed.
    -- Stationary point found.

                         Standard orientation:
 ---------------------------------------------------------------------
 Center     Atomic      Atomic             Coordinates (Angstroms)
 Number     Number       Type             X           Y           Z
 ---------------------------------------------------------------------
      1          6           0       -3.208358    0.614010   -0.142152
      2          8           0       -4.373787   -0.177489   -0.123763
      3          1           0       -5.121317    0.411679    0.055074
      4          1           0       -3.091582    1.239151    0.756729
      5          1           0       -3.171085    1.303446   -1.003851
      6          6           0       -1.982772   -0.281162   -0.200583
      7          8           0       -2.047262   -1.490934   -0.087187
      8          6           0       -0.642744    0.447284   -0.392594
      9          6           0        0.538806   -0.529940   -0.201940
     10          6           0        1.891417    0.141019   -0.452682
     11          6           0        3.069626   -0.774584   -0.135308
     12          1           0        3.065921   -1.651387   -0.798880
     13          1           0        2.988408   -1.112674    0.902763
     14          8           0        4.242077    0.025114   -0.339102
     15          1           0        4.974168   -0.377490    0.149823
     16          1           0       -0.613203    0.792743   -1.446891
     17          8           0       -0.665727    1.546542    0.499033
     18          1           0        0.262422    1.830768    0.613396
     19          1           0        0.426834   -1.302575   -0.980642
     20          8           0        0.544940   -1.121907    1.084820
     21          1           0       -0.266578   -1.657230    1.123059
     22          1           0        1.938099    0.412759   -1.520593
     23          8           0        2.007258    1.325014    0.339151
     24          1           0        2.952073    1.560334    0.317956
 ---------------------------------------------------------------------

 The electronic state is 1-A.
 Alpha  occ. eigenvalues --  -19.16708 -19.15779 -19.15257 -19.14947 -19.13964
 Alpha  occ. eigenvalues --  -19.13646 -10.28151 -10.24722 -10.24479 -10.24340
 Alpha  occ. eigenvalues --  -10.24133 -10.24001  -1.05917  -1.04933  -1.02802
 Alpha  occ. eigenvalues --   -1.02024  -1.01131  -1.00697  -0.78144  -0.74953
 Alpha  occ. eigenvalues --   -0.71264  -0.65497  -0.58673  -0.54932  -0.53453
 Alpha  occ. eigenvalues --   -0.52732  -0.52093  -0.51507  -0.48982  -0.47439
 Alpha  occ. eigenvalues --   -0.46123  -0.45479  -0.43772  -0.42680  -0.41943
 Alpha  occ. eigenvalues --   -0.40484  -0.37680  -0.36753  -0.36340  -0.35015
 Alpha  occ. eigenvalues --   -0.34182  -0.32911  -0.29246  -0.28517  -0.28123
 Alpha  occ. eigenvalues --   -0.27437  -0.25631  -0.24792
 Alpha virt. eigenvalues --   -0.02455   0.05077   0.06598   0.08141   0.11217
 Alpha virt. eigenvalues --    0.12406   0.12718   0.13955   0.15610   0.16038
 Alpha virt. eigenvalues --    0.16545   0.17257   0.18422   0.18826   0.20257

 Mulliken atomic charges:
              1
     1  C   -0.110338
     2  O   -0.596872
     3  H    0.399190
     4  H    0.184565
     5  H    0.145058
     6  C    0.437283
     7  O   -0.450858
     8  C    0.067113
     9  C    0.102189
    10  C    0.133853
    11  C   -0.064326
    12  H    0.132087
    13  H    0.171443
    14  O   -0.640459
    15  H    0.406412
    16  H    0.124578
    17  O   -0.664239
    18  H    0.441617
    19  H    0.128131
    20  O   -0.642366
    21  H    0.416111
    22  H    0.129788
    23  O   -0.669066
    24  H    0.419108
 Sum of Mulliken atomic charges =   0.00000

 Dipole moment (field-independent basis, Debye):
    X=              2.1495    Y=              1.2533    Z=             -0.9330  Tot=              2.6574
 Quadrupole moment (field-independent basis, Debye-Ang):
   XX=            -52.1109   YY=            -72.1470   ZZ=            -70.8033
   XY=            -12.6492   XZ=              2.1010   YZ=             -0.8088

 Normal termination of Gaussian 09 at Thu Jan  4 16:59:37 2018.
