 Gaussian 09, Revision B.01,
 Gaussian 09:  EM64L-G09RevB.01 12-Aug-2010

 -----------------------
 #B3LYP/6-31G* fopt test
 -----------------------

 --------------------------
 Sugars/S-S-S-Fructuose.xyz
 --------------------------
 Symbolic Z-matrix:
 Charge =  0 Multiplicity = 1

 SCF Done:  E(RB3LYP) =  -687.082101753     A.U. after   14 cycles
 SCF Done:  E(RB3LYP) =  -687.091177368     A.U. after   13 cycles
 SCF Done:  E(RB3LYP) =  -687.094951807     A.U. after   15 cycles
 SCF Done:  E(RB3LYP) =  -687.097016425     A.U. after   12 cycles
 SCF Done:  E(RB3LYP) =  -687.100030269     A.U. after   12 cycles
 SCF Done:  E(RB3LYP) =  -687.102915496     A.U. after   13 cycles
 SCF Done:  E(RB3LYP) =  -687.107314105     A.U. after   13 cycles
 SCF Done:  E(RB3LYP) =  -687.111466420     A.U. after   15 cycles
 SCF Done:  E(RB3LYP) =  -687.113820977     A.U. after   14 cycles
 SCF Done:  E(RB3LYP) =  -687.115591384     A.U. after   14 cycles
 SCF Done:  E(RB3LYP) =  -687.139329981     A.U. after   15 cycles
 SCF Done:  E(RB3LYP) =  -687.139474093     A.U. after   11 cycles
 SCF Done:  E(RB3LYP) =  -687.139488157     A.U. after   12 cycles
 SCF Done:  E(RB3LYP) =  -687.139514957     A.U. after   10 cycles
 SCF Done:  E(RB3LYP) =  -687.139521408     A.U. after    9 cycles
 SCF Done:  E(RB3LYP) =  -687.139524585     A.U. after    9 cycles
 SCF Done:  E(RB3LYP) =  -687.139525125     A.U. after    8 cycles
 SCF Done:  E(RB3LYP) =  -687.139525414     A.U. after    8 cycles
 SCF Done:  E(RB3LYP) =  -687.139525517     A.U. after    8 cycles
 SCF Done:  E(RB3LYP) =  -687.139525555     A.U. after    7 cycles
 Optimization completed.
    -- Stationary point found.

                         Standard orientation:
 ---------------------------------------------------------------------
 Center     Atomic      Atomic             Coordinates (Angstroms)
 Number     Number       Type             X           Y           Z
 ---------------------------------------------------------------------
      1          6           0       -3.110063   -0.686613   -0.154886
      2          8           0       -4.298769    0.026134   -0.402928
      3          1           0       -4.981422   -0.622420   -0.629581
      4          1           0       -2.777835   -1.296420   -1.010578
      5          1           0       -3.188248   -1.384947    0.695128
      6          6           0       -1.991153    0.289375    0.151537
      7          8           0       -2.153094    1.498426    0.101946
      8          6           0       -0.636692   -0.316605    0.538955
      9          6           0        0.526474    0.444743   -0.159787
     10          6           0        1.894419   -0.116888    0.243182
     11          6           0        3.052370    0.658465   -0.376115
     12          1           0        3.082110    1.678293    0.021890
     13          1           0        2.922571    0.702345   -1.467449
     14          8           0        4.226728   -0.086145   -0.028901
     15          1           0        4.969370    0.247836   -0.552376
     16          1           0       -0.521519   -0.137666    1.625035
     17          8           0       -0.670770   -1.697856    0.242170
     18          1           0        0.255353   -2.005463    0.177628
     19          1           0        0.408835    0.317593   -1.250143
     20          8           0        0.541078    1.807080    0.214315
     21          1           0       -0.386809    2.115821    0.156787
     22          1           0        1.988233   -0.060490    1.339228
     23          8           0        1.968662   -1.480223   -0.184767
     24          1           0        2.906559   -1.728665   -0.097562
 ---------------------------------------------------------------------

 The electronic state is 1-A.
 Alpha  occ. eigenvalues --  -19.16699 -19.16441 -19.15653 -19.15044 -19.14283
 Alpha  occ. eigenvalues --  -19.13780 -10.28549 -10.24839 -10.24627 -10.24604
 Alpha  occ. eigenvalues --  -10.24277 -10.24037  -1.06278  -1.05187  -1.02866
 Alpha  occ. eigenvalues --   -1.02268  -1.01464  -1.01244  -0.77712  -0.75083
 Alpha  occ. eigenvalues --   -0.71226  -0.65996  -0.59158  -0.54489  -0.54282
 Alpha  occ. eigenvalues --   -0.53375  -0.53028  -0.51652  -0.48786  -0.47672
 Alpha  occ. eigenvalues --   -0.46305  -0.45043  -0.43579  -0.43324  -0.41103
 Alpha  occ. eigenvalues --   -0.39983  -0.38455  -0.37223  -0.36520  -0.36156
 Alpha  occ. eigenvalues --   -0.34847  -0.33166  -0.29096  -0.28721  -0.28312
 Alpha  occ. eigenvalues --   -0.27468  -0.26015  -0.25115
 Alpha virt. eigenvalues --   -0.02662   0.04563   0.06729   0.08776   0.11595
 Alpha virt. eigenvalues --    0.11772   0.12470   0.14295   0.15631   0.16560
 Alpha virt. eigenvalues --    0.17058   0.17391   0.18108   0.19442   0.20081

 Mulliken atomic charges:
              1
     1  C   -0.104552
     2  O   -0.596073
     3  H    0.399670
     4  H    0.170365
     5  H    0.162935
     6  C    0.430520
     7  O   -0.459541
     8  C    0.055028
     9  C    0.116069
    10  C    0.121495
    11  C   -0.052501
    12  H    0.166459
    13  H    0.133104
    14  O   -0.643598
    15  H    0.406470
    16  H    0.152133
    17  O   -0.674083
    18  H    0.438760
    19  H    0.124135
    20  O   -0.664889
    21  H    0.427720
    22  H    0.139997
    23  O   -0.672977
    24  H    0.423354
 Sum of Mulliken atomic charges =   0.00000

 Dipole moment (field-independent basis, Debye):
    X=              2.3107    Y=             -2.2168    Z=             -1.0581  Tot=              3.3724
 Quadrupole moment (field-independent basis, Debye-Ang):
   XX=            -53.6766   YY=            -75.0640   ZZ=            -68.3785
   XY=             10.5949   XZ=             -3.7850   YZ=             -0.5421

 Normal termination of Gaussian 09 at Thu Jan  4 17:25:56 2018.
