 Gaussian 09, Revision B.01,
 Gaussian 09:  EM64L-G09RevB.01 12-Aug-2010

 ---------------------------
 #B3LYP/3-21G fopt test freq
 ---------------------------

 --------------------------------------
 SymmetricEnantiomers/r-tmp_rotated.xyz
 --------------------------------------
 Symbolic Z-matrix:
 Charge =  0 Multiplicity = 1

 SCF Done:  E(RB3LYP) =  -9590.11966487     A.U. after   15 cycles
 SCF Done:  E(RB3LYP) =  -9590.12916335     A.U. after   14 cycles
 SCF Done:  E(RB3LYP) =  -9590.12959636     A.U. after   11 cycles
 SCF Done:  E(RB3LYP) =  -9590.12966508     A.U. after    9 cycles
 SCF Done:  E(RB3LYP) =  -9590.12967479     A.U. after    9 cycles
 SCF Done:  E(RB3LYP) =  -9590.12967553     A.U. after    8 cycles
 Optimization completed.
    -- Stationary point found.

 1\1\GINC-TERMINUS\FOpt\RB3LYP\3-21G\C1H1Br1F1I1\FRODOX\23-Jan-2018\0\\
 #B3LYP/3-21G fopt test freq\\SymmetricEnantiomers/r-tmp_rotated.xyz\\0
 ,1\C,-0.523224628,-0.1880228742,-0.8808655493\I,1.101223575,-0.8869116
 979,0.4751649981\H,-0.0863455708,-0.11096757,-1.8722333256\F,-1.565976
 9597,-1.0914965769,-0.8557644563\Br,-1.2042804165,1.643611719,-0.42425
 06668\\Version=EM64L-G09RevB.01\State=1-A\HF=-9590.1296755\RMSD=2.179e
 -09\RMSF=3.502e-05\Dipole=0.3280287,0.0854756,-0.4303346\Quadrupole=-1
 .0060312,-0.7768901,1.7829213,-0.9801202,0.1976985,-0.189965\PG=C01 [X

 Normal termination of Gaussian 09 at Tue Jan 23 03:36:45 2018.

 ----------------------------------------------------------------------
 #N Geom=AllCheck Guess=TCheck SCRF=Check Test GenChk RB3LYP/3-21G Freq
 ----------------------------------------------------------------------

 SymmetricEnantiomers/r-tmp_rotated.xyz
 --------------------------------------
 Redundant internal coordinates taken from checkpoint file:
 /home/g09scr/Gau-23842.chk
 Charge =  0 Multiplicity = 1

                         Standard orientation:
 ---------------------------------------------------------------------
 Center     Atomic      Atomic             Coordinates (Angstroms)
 Number     Number       Type             X           Y           Z
 ---------------------------------------------------------------------
      1          6           0       -0.460954    0.769684    0.438710
      2         53           0        1.499094   -0.187018   -0.018492
      3          1           0       -0.495143    0.904524    1.515863
      4          9           0       -0.552022    1.975650   -0.225805
      5         35           0       -2.034940   -0.382615   -0.032452
 ---------------------------------------------------------------------

 SCF Done:  E(RB3LYP) =  -9590.12967553     A.U. after    1 cycles

 The electronic state is 1-A.
 Alpha  occ. eigenvalues -- **********-479.55778-175.58103-164.34415-164.34167
 Alpha  occ. eigenvalues -- -164.34166 -62.11245 -55.71682 -55.71214 -55.71206
 Alpha  occ. eigenvalues --  -35.74558 -30.90934 -30.90276 -30.90271 -24.59419
 Alpha  occ. eigenvalues --  -22.83448 -22.83239 -22.83236 -22.82768 -22.82768
 Alpha  occ. eigenvalues --  -10.31279  -8.62829  -6.42360  -6.40702  -6.40674
 Alpha  occ. eigenvalues --   -6.37767  -4.68773  -4.67080  -4.67069  -2.51691
 Alpha  occ. eigenvalues --   -2.51060  -2.51040  -2.49722  -2.49721  -2.06547
 Alpha  occ. eigenvalues --   -2.06022  -2.06013  -2.04574  -2.04573  -1.23407
 Alpha  occ. eigenvalues --   -0.81889  -0.71282  -0.63398  -0.53770  -0.48616
 Alpha  occ. eigenvalues --   -0.47452  -0.37074  -0.34869  -0.30350  -0.29179
 Alpha  occ. eigenvalues --   -0.27415  -0.26771
 Alpha virt. eigenvalues --   -0.08461  -0.01735   0.10307   0.12135   0.34043
 Alpha virt. eigenvalues --    0.38317   0.40163   0.40429   0.57526   0.61353
 Alpha virt. eigenvalues --    0.61913   0.67692   0.70605   0.75396   0.82187

 Mulliken atomic charges:
              1
     1  C   -0.333881
     2  I    0.176142
     3  H    0.287571
     4  F   -0.236446
     5  Br   0.106614
 Sum of Mulliken atomic charges =   0.00000

 Dipole moment (field-independent basis, Debye):
    X=              0.1121    Y=             -0.1370    Z=              1.3811  Tot=              1.3924
 Quadrupole moment (field-independent basis, Debye-Ang):
   XX=            -56.7112   YY=            -58.7725   ZZ=            -56.1458
   XY=             -0.2788   XZ=             -0.8966   YZ=              1.8487

  Exact polarizability:  72.017  -0.611  31.924  -0.992   3.201  21.286
 Approx polarizability: 104.885  -3.061  52.383  -1.705   5.004  26.165

                     1                      2                      3
                     A                      A                      A
 Frequencies --   134.7377               250.1683               307.9508
 Red. masses --    46.6615                21.2110                17.7461
 Frc consts  --     0.4991                 0.7821                 0.9916
 IR Inten    --     0.0197                 0.6013                 1.3552

                     4                      5                      6
                     A                      A                      A
 Frequencies --   534.1045               630.4799              1094.9029
 Red. masses --     5.4059                 7.6970                10.2015
 Frc consts  --     0.9086                 1.8027                 7.2055
 IR Inten    --    30.9345               204.0195               151.0917

                     7                      8                      9
                     A                      A                      A
 Frequencies --  1176.6041              1316.5936              3170.1578
 Red. masses --     1.0785                 1.1293                 1.0882
 Frc consts  --     0.8797                 1.1534                 6.4433
 IR Inten    --   127.0127                15.8610                 6.5052

 - Thermochemistry -
 -------------------
 Temperature   298.150 Kelvin.  Pressure   1.00000 Atm.
 Atom     1 has atomic number  6 and mass  12.00000

 Molecular mass:   237.82496 amu.
 Principal axes and moments of inertia in atomic units:
                           1         2         3
     Eigenvalues --   369.994462233.732532563.27573
           X            1.00000  -0.00147  -0.00167
           Y            0.00150   0.99983   0.01829
           Z            0.00164  -0.01829   0.99983
 This molecule is an asymmetric top.
 Rotational symmetry number  1.
 Rotational temperatures (Kelvin)      0.23409     0.03878     0.03379
 Rotational constants (GHZ):           4.87775     0.80795     0.70408
 Zero-point vibrational energy      51533.3 (Joules/Mol)
                                   12.31676 (Kcal/Mol)
 Warning -- explicit consideration of   4 degrees of freedom as
           vibrations may cause significant error
 Vibrational temperatures:    193.86   359.94   443.07   768.46   907.12
          (Kelvin)           1575.32  1692.87  1894.28  4561.14

 Zero-point correction=                           0.019628 (Hartree/Particle)
 Thermal correction to Energy=                    0.024426
 Thermal correction to Enthalpy=                  0.025370
 Thermal correction to Gibbs Free Energy=        -0.011944
 Sum of electronic and zero-point Energies=          -9590.110048
 Sum of electronic and thermal Energies=             -9590.105250
 Sum of electronic and thermal Enthalpies=           -9590.104306
 Sum of electronic and thermal Free Energies=        -9590.141619

                     E (Thermal)             CV                S
                      KCal/Mol        Cal/Mol-Kelvin    Cal/Mol-Kelvin
 Total                   15.327             14.089             78.533
 Electronic               0.000              0.000              0.000
 Translational            0.889              2.981             42.301
 Rotational               0.889              2.981             29.140
 Vibrational             13.550              8.127              7.093
 Vibration     1          0.613              1.919              2.877
 Vibration     2          0.663              1.762              1.729
 Vibration     3          0.698              1.659              1.373
 Vibration     4          0.889              1.175              0.578

 Optimization completed.
    -- Stationary point found.

 1\1\GINC-TERMINUS\Freq\RB3LYP\3-21G\C1H1Br1F1I1\FRODOX\23-Jan-2018\0\\
 #N Geom=AllCheck Guess=TCheck SCRF=Check Test GenChk RB3LYP/3-21G Freq
 \\SymmetricEnantiomers/r-tmp_rotated.xyz\\0,1\C,-0.523224628,-0.188022
 8742,-0.8808655493\I,1.101223575,-0.8869116979,0.4751649981\H,-0.08634
 55708,-0.11096757,-1.8722333256\F,-1.5659769597,-1.0914965769,-0.85576
 44563\Br,-1.2042804165,1.643611719,-0.4242506668\\Version=EM64L-G09Rev
 B.01\State=1-A\HF=-9590.1296755\RMSD=6.038e-10\RMSF=3.502e-05\ZeroPoin
 t=0.019628\Thermal=0.0244257\Dipole=0.3280287,0.0854756,-0.4303346\Dip

 Normal termination of Gaussian 09 at Tue Jan 23 03:36:49 2018.
