 Gaussian 09, Revision B.01,
 Gaussian 09:  EM64L-G09RevB.01 12-Aug-2010

 ---------------------------
 #B3LYP/3-21G fopt test freq
 ---------------------------

 ------------------------------
 SymmetricEnantiomers/s-tmp.xyz
 ------------------------------
 Symbolic Z-matrix:
 Charge =  0 Multiplicity = 1

 SCF Done:  E(RB3LYP) =  -9590.11963165     A.U. after   15 cycles
 SCF Done:  E(RB3LYP) =  -9590.12929431     A.U. after   14 cycles
 SCF Done:  E(RB3LYP) =  -9590.12962022     A.U. after   11 cycles
 SCF Done:  E(RB3LYP) =  -9590.12966829     A.U. after    9 cycles
 SCF Done:  E(RB3LYP) =  -9590.12967522     A.U. after    8 cycles
 Optimization completed.
    -- Stationary point found.

 1\1\GINC-TERMINUS\FOpt\RB3LYP\3-21G\C1H1Br1F1I1\FRODOX\23-Jan-2018\0\\
 #B3LYP/3-21G fopt test freq\\SymmetricEnantiomers/s-tmp.xyz\\0,1\C,0.7
 865971811,0.1971476137,-0.6542630622\F,1.3550879634,-0.8522611448,-1.3
 465895629\Br,1.7073911564,0.4190368085,1.1143179381\I,-1.4098816955,-0
 .1353986081,-0.4693784032\H,0.9118753946,1.1378683307,-1.1824099097\\V
 ersion=EM64L-G09RevB.01\State=1-A\HF=-9590.1296752\RMSD=9.490e-09\RMSF
 =8.987e-05\Dipole=-0.0410817,0.5119995,-0.1894673\Quadrupole=0.3405696
 ,-0.2923626,-0.0482069,1.2685172,-0.0930353,-1.3062988\PG=C01 [X(C1H1B

 Normal termination of Gaussian 09 at Tue Jan 23 03:37:10 2018.

 ----------------------------------------------------------------------
 #N Geom=AllCheck Guess=TCheck SCRF=Check Test GenChk RB3LYP/3-21G Freq
 ----------------------------------------------------------------------

 SymmetricEnantiomers/s-tmp.xyz
 ------------------------------
 Redundant internal coordinates taken from checkpoint file:
 /home/g09scr/Gau-24460.chk
 Charge =  0 Multiplicity = 1

                         Standard orientation:
 ---------------------------------------------------------------------
 Center     Atomic      Atomic             Coordinates (Angstroms)
 Number     Number       Type             X           Y           Z
 ---------------------------------------------------------------------
      1          6           0        0.461674    0.769343    0.438458
      2          9           0        0.552366    1.975374   -0.225637
      3         35           0        2.035287   -0.382594   -0.032455
      4         53           0       -1.499456   -0.186931   -0.018487
      5          1           0        0.494776    0.903713    1.515694
 ---------------------------------------------------------------------

 SCF Done:  E(RB3LYP) =  -9590.12967522     A.U. after    1 cycles

 The electronic state is 1-A.
 Alpha  occ. eigenvalues -- **********-479.55789-175.58095-164.34406-164.34159
 Alpha  occ. eigenvalues -- -164.34158 -62.11256 -55.71692 -55.71225 -55.71217
 Alpha  occ. eigenvalues --  -35.74550 -30.90926 -30.90268 -30.90263 -24.59426
 Alpha  occ. eigenvalues --  -22.83439 -22.83231 -22.83228 -22.82760 -22.82760
 Alpha  occ. eigenvalues --  -10.31281  -8.62839  -6.42371  -6.40713  -6.40684
 Alpha  occ. eigenvalues --   -6.37759  -4.68764  -4.67072  -4.67060  -2.51702
 Alpha  occ. eigenvalues --   -2.51071  -2.51051  -2.49732  -2.49732  -2.06538
 Alpha  occ. eigenvalues --   -2.06013  -2.06005  -2.04566  -2.04566  -1.23419
 Alpha  occ. eigenvalues --   -0.81901  -0.71276  -0.63394  -0.53778  -0.48625
 Alpha  occ. eigenvalues --   -0.47457  -0.37078  -0.34870  -0.30356  -0.29181
 Alpha  occ. eigenvalues --   -0.27409  -0.26770
 Alpha virt. eigenvalues --   -0.08466  -0.01728   0.10316   0.12133   0.34051
 Alpha virt. eigenvalues --    0.38322   0.40170   0.40434   0.57522   0.61349
 Alpha virt. eigenvalues --    0.61905   0.67688   0.70594   0.75386   0.82186

 Mulliken atomic charges:
              1
     1  C   -0.333694
     2  F   -0.236425
     3  Br   0.107145
     4  I    0.175413
     5  H    0.287560
 Sum of Mulliken atomic charges =   0.00000

 Dipole moment (field-independent basis, Debye):
    X=             -0.1058    Y=             -0.1369    Z=              1.3807  Tot=              1.3915
 Quadrupole moment (field-independent basis, Debye-Ang):
   XX=            -56.7085   YY=            -58.7735   ZZ=            -56.1477
   XY=              0.2764   XZ=              0.8949   YZ=              1.8462

  Exact polarizability:  72.057   0.620  31.913   0.993   3.197  21.282
 Approx polarizability: 104.973   3.094  52.362   1.708   4.996  26.157

                     1                      2                      3
                     A                      A                      A
 Frequencies --   134.6540               250.0468               308.0046
 Red. masses --    46.6558                21.1950                17.7510
 Frc consts  --     0.4984                 0.7808                 0.9922
 IR Inten    --     0.0201                 0.6117                 1.3507

                     4                      5                      6
                     A                      A                      A
 Frequencies --   533.7738               630.6287              1095.4515
 Red. masses --     5.4095                 7.6986                10.1835
 Frc consts  --     0.9081                 1.8039                 7.2000
 IR Inten    --    31.3043               204.0552               151.1887

                     7                      8                      9
                     A                      A                      A
 Frequencies --  1176.7750              1316.7390              3170.2040
 Red. masses --     1.0784                 1.1295                 1.0882
 Frc consts  --     0.8799                 1.1538                 6.4435
 IR Inten    --   126.9959                15.8820                 6.5161

 - Thermochemistry -
 -------------------
 Temperature   298.150 Kelvin.  Pressure   1.00000 Atm.
 Atom     1 has atomic number  6 and mass  12.00000

 Molecular mass:   237.82496 amu.
 Principal axes and moments of inertia in atomic units:
                           1         2         3
     Eigenvalues --   369.857352234.657652564.09622
           X            1.00000   0.00147   0.00167
           Y           -0.00150   0.99983   0.01827
           Z           -0.00164  -0.01828   0.99983
 This molecule is an asymmetric top.
 Rotational symmetry number  1.
 Rotational temperatures (Kelvin)      0.23418     0.03876     0.03378
 Rotational constants (GHZ):           4.87956     0.80761     0.70385
 Zero-point vibrational energy      51536.8 (Joules/Mol)
                                   12.31759 (Kcal/Mol)
 Warning -- explicit consideration of   4 degrees of freedom as
           vibrations may cause significant error
 Vibrational temperatures:    193.74   359.76   443.15   767.98   907.33
          (Kelvin)           1576.11  1693.11  1894.49  4561.21

 Zero-point correction=                           0.019629 (Hartree/Particle)
 Thermal correction to Energy=                    0.024427
 Thermal correction to Enthalpy=                  0.025372
 Thermal correction to Gibbs Free Energy=        -0.011943
 Sum of electronic and zero-point Energies=          -9590.110046
 Sum of electronic and thermal Energies=             -9590.105248
 Sum of electronic and thermal Enthalpies=           -9590.104304
 Sum of electronic and thermal Free Energies=        -9590.141618

                     E (Thermal)             CV                S
                      KCal/Mol        Cal/Mol-Kelvin    Cal/Mol-Kelvin
 Total                   15.328             14.089             78.535
 Electronic               0.000              0.000              0.000
 Translational            0.889              2.981             42.301
 Rotational               0.889              2.981             29.140
 Vibrational             13.551              8.127              7.095
 Vibration     1          0.613              1.919              2.878
 Vibration     2          0.663              1.763              1.730
 Vibration     3          0.698              1.658              1.373
 Vibration     4          0.889              1.175              0.579

 Optimization completed.
    -- Stationary point found.

 1\1\GINC-TERMINUS\Freq\RB3LYP\3-21G\C1H1Br1F1I1\FRODOX\23-Jan-2018\0\\
 #N Geom=AllCheck Guess=TCheck SCRF=Check Test GenChk RB3LYP/3-21G Freq
 \\SymmetricEnantiomers/s-tmp.xyz\\0,1\C,0.7865971811,0.1971476137,-0.6
 542630622\F,1.3550879634,-0.8522611448,-1.3465895629\Br,1.7073911564,0
 .4190368085,1.1143179381\I,-1.4098816955,-0.1353986081,-0.4693784032\H
 ,0.9118753946,1.1378683307,-1.1824099097\\Version=EM64L-G09RevB.01\Sta
 te=1-A\HF=-9590.1296752\RMSD=2.312e-09\RMSF=8.986e-05\ZeroPoint=0.0196
 293\Thermal=0.0244273\Dipole=-0.0410812,0.5119994,-0.1894673\DipoleDer

 Normal termination of Gaussian 09 at Tue Jan 23 03:37:14 2018.
