 Gaussian 09, Revision B.01,
 Gaussian 09:  EM64L-G09RevB.01 12-Aug-2010

 ------------------------------
 #B3LYP/6-311G** fopt test freq
 ------------------------------

 -------------------------
 Sugars/Base-Fructuose.xyz
 -------------------------
 Symbolic Z-matrix:
 Charge =  0 Multiplicity = 1

 SCF Done:  E(RB3LYP) =  -687.324043725     A.U. after   14 cycles
 SCF Done:  E(RB3LYP) =  -687.334995886     A.U. after   13 cycles
 SCF Done:  E(RB3LYP) =  -687.339055742     A.U. after   12 cycles
 SCF Done:  E(RB3LYP) =  -687.339922743     A.U. after   14 cycles
 SCF Done:  E(RB3LYP) =  -687.341900722     A.U. after   12 cycles
 SCF Done:  E(RB3LYP) =  -687.342434237     A.U. after   12 cycles
 SCF Done:  E(RB3LYP) =  -687.344583436     A.U. after   12 cycles
 SCF Done:  E(RB3LYP) =  -687.346957450     A.U. after   15 cycles
 SCF Done:  E(RB3LYP) =  -687.349966245     A.U. after   15 cycles
 SCF Done:  E(RB3LYP) =  -687.352564203     A.U. after   15 cycles
 SCF Done:  E(RB3LYP) =  -687.357458224     A.U. after   10 cycles
 SCF Done:  E(RB3LYP) =  -687.357475540     A.U. after   10 cycles
 SCF Done:  E(RB3LYP) =  -687.357478696     A.U. after    8 cycles
 SCF Done:  E(RB3LYP) =  -687.357481234     A.U. after    8 cycles
 SCF Done:  E(RB3LYP) =  -687.357482802     A.U. after    8 cycles
 SCF Done:  E(RB3LYP) =  -687.357483727     A.U. after    8 cycles
 SCF Done:  E(RB3LYP) =  -687.357484516     A.U. after    8 cycles
 SCF Done:  E(RB3LYP) =  -687.357484581     A.U. after    8 cycles
 SCF Done:  E(RB3LYP) =  -687.357484535     A.U. after    7 cycles
 Optimization completed.
    -- Stationary point found.
 Normal termination of Gaussian 09 at Mon Jan 22 19:50:23 2018.

 ----------------------------------------------------------------------
 #N Geom=AllCheck Guess=TCheck SCRF=Check Test GenChk RB3LYP/6-311G(d,p
 ) Freq
 ----------------------------------------------------------------------

 Sugars/Base-Fructuose.xyz
 -------------------------
 Redundant internal coordinates taken from checkpoint file:
 /home/g09scr/Gau-6644.chk
 Charge =  0 Multiplicity = 1

                         Standard orientation:
 ---------------------------------------------------------------------
 Center     Atomic      Atomic             Coordinates (Angstroms)
 Number     Number       Type             X           Y           Z
 ---------------------------------------------------------------------
      1          6           0       -3.146012    0.385038    0.031913
      2          8           0       -4.289367   -0.418155    0.195731
      3          1           0       -5.026350    0.161534    0.406795
      4          1           0       -2.882912    0.938371    0.949096
      5          1           0       -3.250408    1.134727   -0.765818
      6          6           0       -1.954103   -0.490751   -0.304867
      7          8           0       -2.005775   -1.693894   -0.348608
      8          6           0       -0.629537    0.229439   -0.623530
      9          6           0        0.515540   -0.316393    0.256969
     10          6           0        1.908089    0.005822   -0.321272
     11          6           0        3.005212   -0.835747    0.309920
     12          1           0        2.682320   -1.886424    0.306592
     13          1           0        3.142247   -0.521581    1.352711
     14          8           0        4.188264   -0.659009   -0.454977
     15          1           0        4.923831   -1.034337    0.036272
     16          1           0       -0.420103    0.004808   -1.673946
     17          8           0       -0.706672    1.650504   -0.522292
     18          1           0       -0.674634    1.837550    0.426777
     19          1           0        0.378105   -1.396506    0.345649
     20          8           0        0.392147    0.267728    1.557083
     21          1           0        1.082188    0.948458    1.592543
     22          1           0        1.917149   -0.196033   -1.399409
     23          8           0        2.213881    1.381631   -0.063684
     24          1           0        1.593611    1.914536   -0.578072
 ---------------------------------------------------------------------

 SCF Done:  E(RB3LYP) =  -687.357484535     A.U. after    1 cycles

 The electronic state is 1-A.
 Alpha  occ. eigenvalues --  -19.14684 -19.13463 -19.13448 -19.12385 -19.11960
 Alpha  occ. eigenvalues --  -19.11813 -10.26553 -10.24416 -10.23946 -10.23886
 Alpha  occ. eigenvalues --  -10.23469 -10.22698  -1.07423  -1.06080  -1.04506
 Alpha  occ. eigenvalues --   -1.03068  -1.02972  -1.02065  -0.79403  -0.75779
 Alpha  occ. eigenvalues --   -0.72796  -0.65629  -0.61224  -0.56982  -0.54548
 Alpha  occ. eigenvalues --   -0.54132  -0.53542  -0.52125  -0.50022  -0.48662
 Alpha  occ. eigenvalues --   -0.47650  -0.45720  -0.44584  -0.43758  -0.43474
 Alpha  occ. eigenvalues --   -0.42455  -0.38761  -0.37643  -0.36273  -0.35995
 Alpha  occ. eigenvalues --   -0.35753  -0.34383  -0.32914  -0.30576  -0.29648
 Alpha  occ. eigenvalues --   -0.28744  -0.28077  -0.25172
 Alpha virt. eigenvalues --   -0.02981   0.01625   0.02830   0.03473   0.04851
 Alpha virt. eigenvalues --    0.07108   0.07386   0.08014   0.09408   0.11365
 Alpha virt. eigenvalues --    0.12317   0.12693   0.13710   0.14489   0.16633

 Mulliken atomic charges:
              1
     1  C    0.003349
     2  O   -0.372805
     3  H    0.240090
     4  H    0.105191
     5  H    0.123578
     6  C    0.167954
     7  O   -0.283754
     8  C    0.041559
     9  C    0.003708
    10  C   -0.028513
    11  C    0.061998
    12  H    0.095714
    13  H    0.094137
    14  O   -0.395596
    15  H    0.241179
    16  H    0.151558
    17  O   -0.412607
    18  H    0.231980
    19  H    0.148016
    20  O   -0.419971
    21  H    0.243329
    22  H    0.126612
    23  O   -0.411557
    24  H    0.244852
 Sum of Mulliken atomic charges =   0.00000

 Dipole moment (field-independent basis, Debye):
    X=              0.4624    Y=              2.3022    Z=              0.7851  Tot=              2.4760
 Quadrupole moment (field-independent basis, Debye-Ang):
   XX=            -63.8265   YY=            -74.1735   ZZ=            -71.4251
   XY=            -17.6945   XZ=              3.4254   YZ=              1.2417

  Exact polarizability: 107.235  -3.204  83.220  -0.617   1.183  70.969
 Approx polarizability: 121.739   0.557 132.730  -1.194   2.636 109.110

                     1                      2                      3
                     A                      A                      A
 Frequencies --    25.8557                54.2543                78.2259
 Red. masses --     5.8972                 6.4890                 5.9573
 Frc consts  --     0.0023                 0.0113                 0.0215
 IR Inten    --     3.6027                 3.2816                 4.8309

                     4                      5                      6
                     A                      A                      A
 Frequencies --    92.8098               108.9969               132.3320
 Red. masses --     3.2712                 3.0949                 3.9299
 Frc consts  --     0.0166                 0.0217                 0.0405
 IR Inten    --    12.2522                 6.9431                 6.1349

                     7                      8                      9
                     A                      A                      A
 Frequencies --   183.8528               194.6135               221.5474
 Red. masses --     1.0947                 5.9945                 2.9639
 Frc consts  --     0.0218                 0.1338                 0.0857
 IR Inten    --   116.7296                11.5632                37.1870

                    10                     11                     12
                     A                      A                      A
 Frequencies --   231.6348               252.1994               277.6024
 Red. masses --     1.3700                 4.0899                 5.2009
 Frc consts  --     0.0433                 0.1533                 0.2361
 IR Inten    --    74.1747                21.5181                 8.0876

                    13                     14                     15
                     A                      A                      A
 Frequencies --   308.0020               316.2560               331.7190
 Red. masses --     5.4883                 7.7631                 4.9406
 Frc consts  --     0.3068                 0.4575                 0.3203
 IR Inten    --    16.5292                 3.2528                18.4958

                    16                     17                     18
                     A                      A                      A
 Frequencies --   455.9004               467.2513               491.7748
 Red. masses --     1.4809                 1.7857                 1.7645
 Frc consts  --     0.1814                 0.2297                 0.2514
 IR Inten    --   111.9666                72.3206                19.9292

                    19                     20                     21
                     A                      A                      A
 Frequencies --   500.4377               503.6010               652.5983
 Red. masses --     1.5204                 6.0285                 4.7798
 Frc consts  --     0.2243                 0.9008                 1.1994
 IR Inten    --   191.9037                 1.1220               116.8366

                    22                     23                     24
                     A                      A                      A
 Frequencies --   709.4933               734.3078               765.1145
 Red. masses --     1.9673                 1.4125                 4.3159
 Frc consts  --     0.5835                 0.4487                 1.4886
 IR Inten    --     1.7386                 7.2442                 8.4111

                    25                     26                     27
                     A                      A                      A
 Frequencies --   807.5541               872.6419               897.5224
 Red. masses --     4.0317                 4.2060                 2.7708
 Frc consts  --     1.5491                 1.8871                 1.3150
 IR Inten    --    13.7359                53.5386                10.3671

                    28                     29                     30
                     A                      A                      A
 Frequencies --   970.1519               987.8170              1031.6560
 Red. masses --     2.1371                 2.4172                 2.8665
 Frc consts  --     1.1851                 1.3897                 1.7975
 IR Inten    --    22.0101                24.5193                37.4248

                    31                     32                     33
                     A                      A                      A
 Frequencies --  1066.1162              1081.8691              1091.3566
 Red. masses --     3.1148                 4.3200                 3.0005
 Frc consts  --     2.0859                 2.9791                 2.1056
 IR Inten    --    20.1503               193.4020                40.0817

                    34                     35                     36
                     A                      A                      A
 Frequencies --  1097.5757              1116.7661              1164.3344
 Red. masses --     3.6341                 3.1637                 2.3607
 Frc consts  --     2.5794                 2.3247                 1.8856
 IR Inten    --    72.7956                54.5881                16.7667

                    37                     38                     39
                     A                      A                      A
 Frequencies --  1216.1632              1234.4587              1241.9798
 Red. masses --     1.0989                 1.1765                 1.2593
 Frc consts  --     0.9576                 1.0563                 1.1445
 IR Inten    --    40.0835                32.5565                16.4021

                    40                     41                     42
                     A                      A                      A
 Frequencies --  1247.5338              1259.7921              1265.8594
 Red. masses --     1.3589                 1.2523                 1.1461
 Frc consts  --     1.2460                 1.1710                 1.0820
 IR Inten    --    51.1852                26.4921                11.5476

                    43                     44                     45
                     A                      A                      A
 Frequencies --  1290.6997              1330.2537              1340.8162
 Red. masses --     1.2847                 1.2129                 1.3044
 Frc consts  --     1.2609                 1.2646                 1.3817
 IR Inten    --    13.0731                30.5115                25.6886

                    46                     47                     48
                     A                      A                      A
 Frequencies --  1370.2384              1402.5662              1414.4797
 Red. masses --     1.4049                 1.3214                 1.2022
 Frc consts  --     1.5542                 1.5316                 1.4171
 IR Inten    --     2.9546                28.8183                50.0252

                    49                     50                     51
                     A                      A                      A
 Frequencies --  1437.3603              1444.7528              1480.9128
 Red. masses --     1.3924                 1.3337                 1.5331
 Frc consts  --     1.6949                 1.6402                 1.9810
 IR Inten    --    28.7277                35.6800                 3.7414

                    52                     53                     54
                     A                      A                      A
 Frequencies --  1482.6267              1509.0914              1814.2429
 Red. masses --     1.2092                 1.0957                12.1344
 Frc consts  --     1.5661                 1.4702                23.5320
 IR Inten    --     6.3275                 4.0120               125.6492

                    55                     56                     57
                     A                      A                      A
 Frequencies --  2952.8002              2980.6833              2998.5388
 Red. masses --     1.0658                 1.0582                 1.0910
 Frc consts  --     5.4750                 5.5392                 5.7793
 IR Inten    --    39.1197                44.2681                21.3157

                    58                     59                     60
                     A                      A                      A
 Frequencies --  3013.6144              3030.6942              3056.8825
 Red. masses --     1.0920                 1.0968                 1.0844
 Frc consts  --     5.8434                 5.9356                 5.9701
 IR Inten    --     2.4756                53.4788                14.8461

                    61                     62                     63
                     A                      A                      A
 Frequencies --  3078.1707              3695.8550              3745.9330
 Red. masses --     1.0860                 1.0655                 1.0647
 Frc consts  --     6.0626                 8.5752                 8.8027
 IR Inten    --    16.0913                93.8585                33.6568

                    64                     65                     66
                     A                      A                      A
 Frequencies --  3777.3458              3848.0511              3850.4895
 Red. masses --     1.0661                 1.0667                 1.0667
 Frc consts  --     8.9626                 9.3059                 9.3183
 IR Inten    --    69.0693                43.8599                34.6411

 - Thermochemistry -
 -------------------
 Temperature   298.150 Kelvin.  Pressure   1.00000 Atm.
 Atom     1 has atomic number  6 and mass  12.00000

 Molecular mass:   180.06339 amu.
 Principal axes and moments of inertia in atomic units:
                           1         2         3
     Eigenvalues --   829.440124345.524824677.56039
           X            0.99985  -0.01713   0.00155
           Y            0.01714   0.99985  -0.00295
           Z           -0.00150   0.00297   0.99999
 This molecule is an asymmetric top.
 Rotational symmetry number  1.
 Warning -- assumption of classical behavior for rotation
           may cause significant error
 Rotational temperatures (Kelvin)      0.10442     0.01993     0.01852
 Rotational constants (GHZ):           2.17585     0.41531     0.38583
 Zero-point vibrational energy     508943.0 (Joules/Mol)
                                  121.64030 (Kcal/Mol)
 Warning -- explicit consideration of  20 degrees of freedom as
           vibrations may cause significant error
 Vibrational temperatures:     37.20    78.06   112.55   133.53   156.82
          (Kelvin)            190.40   264.52   280.01   318.76   333.27
                              362.86   399.41   443.15   455.02   477.27
                              655.94   672.27   707.55   720.02   724.57
                              938.94  1020.80  1056.50  1100.83  1161.89
                             1255.54  1291.33  1395.83  1421.25  1484.32
                             1533.90  1556.57  1570.22  1579.16  1606.78
                             1675.22  1749.79  1776.11  1786.93  1794.92
                             1812.56  1821.29  1857.03  1913.94  1929.13
                             1971.46  2017.98  2035.12  2068.04  2078.67
                             2130.70  2133.17  2171.24  2610.29  4248.42
                             4288.53  4314.22  4335.91  4360.49  4398.17
                             4428.80  5317.50  5389.56  5434.75  5536.48
                             5539.99

 Zero-point correction=                           0.193846 (Hartree/Particle)
 Thermal correction to Energy=                    0.207864
 Thermal correction to Enthalpy=                  0.208808
 Thermal correction to Gibbs Free Energy=         0.152301
 Sum of electronic and zero-point Energies=           -687.163638
 Sum of electronic and thermal Energies=              -687.149621
 Sum of electronic and thermal Enthalpies=            -687.148676
 Sum of electronic and thermal Free Energies=         -687.205183

                     E (Thermal)             CV                S
                      KCal/Mol        Cal/Mol-Kelvin    Cal/Mol-Kelvin
 Total                  130.437             49.783            118.929
 Electronic               0.000              0.000              0.000
 Translational            0.889              2.981             41.471
 Rotational               0.889              2.981             31.200
 Vibrational            128.659             43.822             46.257
 Vibration     1          0.593              1.985              6.124
 Vibration     2          0.596              1.976              4.656
 Vibration     3          0.600              1.964              3.935
 Vibration     4          0.602              1.954              3.600
 Vibration     5          0.606              1.942              3.287
 Vibration     6          0.612              1.921              2.912
 Vibration     7          0.631              1.862              2.289
 Vibration     8          0.635              1.847              2.183
 Vibration     9          0.648              1.808              1.946
 Vibration    10          0.653              1.793              1.866
 Vibration    11          0.664              1.759              1.715
 Vibration    12          0.679              1.715              1.548
 Vibration    13          0.698              1.658              1.373
 Vibration    14          0.703              1.643              1.329
 Vibration    15          0.714              1.612              1.252
 Vibration    16          0.814              1.348              0.778
 Vibration    17          0.825              1.323              0.745
 Vibration    18          0.848              1.268              0.679
 Vibration    19          0.856              1.249              0.657
 Vibration    20          0.859              1.242              0.649

 Normal termination of Gaussian 09 at Mon Jan 22 19:56:46 2018.
