 Gaussian 09, Revision B.01,
 Gaussian 09:  EM64L-G09RevB.01 12-Aug-2010

 ------------------------------
 #B3LYP/6-311G** fopt test freq
 ------------------------------

 --------------------------
 Sugars/R-R-S-Fructuose.xyz
 --------------------------
 Symbolic Z-matrix:
 Charge =  0 Multiplicity = 1

 SCF Done:  E(RB3LYP) =  -687.320939257     A.U. after   14 cycles
 SCF Done:  E(RB3LYP) =  -687.330238001     A.U. after   13 cycles
 SCF Done:  E(RB3LYP) =  -687.334296735     A.U. after   13 cycles
 SCF Done:  E(RB3LYP) =  -687.335974335     A.U. after   13 cycles
 SCF Done:  E(RB3LYP) =  -687.339110334     A.U. after   12 cycles
 SCF Done:  E(RB3LYP) =  -687.341727888     A.U. after   12 cycles
 SCF Done:  E(RB3LYP) =  -687.345395817     A.U. after   13 cycles
 SCF Done:  E(RB3LYP) =  -687.346917789     A.U. after   12 cycles
 SCF Done:  E(RB3LYP) =  -687.349491410     A.U. after   14 cycles
 SCF Done:  E(RB3LYP) =  -687.351537446     A.U. after   12 cycles
 SCF Done:  E(RB3LYP) =  -687.367456152     A.U. after   11 cycles
 SCF Done:  E(RB3LYP) =  -687.367470674     A.U. after    9 cycles
 SCF Done:  E(RB3LYP) =  -687.367475586     A.U. after   10 cycles
 SCF Done:  E(RB3LYP) =  -687.367477619     A.U. after    8 cycles
 SCF Done:  E(RB3LYP) =  -687.367478528     A.U. after    8 cycles
 SCF Done:  E(RB3LYP) =  -687.367478931     A.U. after    7 cycles
 SCF Done:  E(RB3LYP) =  -687.367479195     A.U. after    7 cycles
 SCF Done:  E(RB3LYP) =  -687.367479285     A.U. after    7 cycles
 SCF Done:  E(RB3LYP) =  -687.367479320     A.U. after    7 cycles
 Optimization completed.
    -- Stationary point found.
 Normal termination of Gaussian 09 at Mon Jan 22 21:39:56 2018.

 ----------------------------------------------------------------------
 #N Geom=AllCheck Guess=TCheck SCRF=Check Test GenChk RB3LYP/6-311G(d,p
 ) Freq
 ----------------------------------------------------------------------

 Sugars/R-R-S-Fructuose.xyz
 --------------------------
 Redundant internal coordinates taken from checkpoint file:
 /home/g09scr/Gau-10268.chk
 Charge =  0 Multiplicity = 1

                         Standard orientation:
 ---------------------------------------------------------------------
 Center     Atomic      Atomic             Coordinates (Angstroms)
 Number     Number       Type             X           Y           Z
 ---------------------------------------------------------------------
      1          6           0       -2.679015   -0.938879    0.271640
      2          8           0       -4.009508   -0.969073   -0.194183
      3          1           0       -4.316142   -1.877864   -0.135708
      4          1           0       -2.032998   -1.693568   -0.194710
      5          1           0       -2.611673   -1.095178    1.361151
      6          6           0       -2.060869    0.408950   -0.018489
      7          8           0       -2.646784    1.291140   -0.605980
      8          6           0       -0.627687    0.684146    0.469805
      9          6           0        0.428163   -0.101725   -0.360005
     10          6           0        1.845249    0.253177    0.108163
     11          6           0        2.905865   -0.174848   -0.899032
     12          1           0        2.854310    0.464953   -1.788784
     13          1           0        2.730597   -1.216071   -1.192694
     14          8           0        4.164954   -0.032845   -0.231691
     15          1           0        4.836944   -0.502009   -0.733238
     16          1           0       -0.528519    0.376367    1.518356
     17          8           0       -0.369005    2.064014    0.352854
     18          1           0       -1.117425    2.418160   -0.157701
     19          1           0        0.306240    0.189736   -1.408136
     20          8           0        0.243796   -1.508761   -0.277652
     21          1           0        0.735620   -1.774862    0.514944
     22          1           0        1.911447    1.331190    0.279019
     23          8           0        2.037508   -0.458772    1.335747
     24          1           0        2.993682   -0.491414    1.472250
 ---------------------------------------------------------------------

 SCF Done:  E(RB3LYP) =  -687.367479320     A.U. after    1 cycles

 The electronic state is 1-A.
 Alpha  occ. eigenvalues --  -19.13953 -19.12963 -19.12837 -19.12578 -19.12067
 Alpha  occ. eigenvalues --  -19.11342 -10.26745 -10.23771 -10.23218 -10.23161
 Alpha  occ. eigenvalues --  -10.23018 -10.22972  -1.07441  -1.06099  -1.04125
 Alpha  occ. eigenvalues --   -1.03118  -1.01879  -1.01663  -0.78736  -0.75995
 Alpha  occ. eigenvalues --   -0.71489  -0.65490  -0.61241  -0.56429  -0.55206
 Alpha  occ. eigenvalues --   -0.53381  -0.52279  -0.50077  -0.49445  -0.49244
 Alpha  occ. eigenvalues --   -0.48386  -0.47271  -0.45142  -0.43999  -0.42068
 Alpha  occ. eigenvalues --   -0.40472  -0.38108  -0.37725  -0.36545  -0.36119
 Alpha  occ. eigenvalues --   -0.35237  -0.34517  -0.31381  -0.30111  -0.29149
 Alpha  occ. eigenvalues --   -0.28278  -0.27296  -0.26449
 Alpha virt. eigenvalues --   -0.02990   0.01559   0.02977   0.05074   0.05621
 Alpha virt. eigenvalues --    0.06902   0.07640   0.09679   0.10409   0.11358
 Alpha virt. eigenvalues --    0.12962   0.13245   0.14284   0.15883   0.16411

 Mulliken atomic charges:
              1
     1  C    0.003321
     2  O   -0.379123
     3  H    0.240314
     4  H    0.143176
     5  H    0.106903
     6  C    0.162047
     7  O   -0.303505
     8  C    0.031963
     9  C    0.034861
    10  C   -0.001594
    11  C    0.024344
    12  H    0.105488
    13  H    0.098885
    14  O   -0.426070
    15  H    0.254483
    16  H    0.128040
    17  O   -0.403602
    18  H    0.246036
    19  H    0.123883
    20  O   -0.409443
    21  H    0.249000
    22  H    0.150310
    23  O   -0.438955
    24  H    0.259237
 Sum of Mulliken atomic charges =   0.00000

 Dipole moment (field-independent basis, Debye):
    X=              3.2263    Y=             -3.6250    Z=             -0.2531  Tot=              4.8594
 Quadrupole moment (field-independent basis, Debye-Ang):
   XX=            -65.9200   YY=            -70.2941   ZZ=            -69.9104
   XY=              4.1136   XZ=             -9.6621   YZ=             -2.2925

  Exact polarizability: 107.294   0.488  83.567   1.847  -4.685  72.705
 Approx polarizability: 128.040  -4.271 126.091   9.355 -10.625 111.550

                     1                      2                      3
                     A                      A                      A
 Frequencies --    43.3327                54.0103                75.5394
 Red. masses --     6.3319                 3.8066                 5.1508
 Frc consts  --     0.0070                 0.0065                 0.0173
 IR Inten    --     1.3575                 6.6263                 1.2235

                     4                      5                      6
                     A                      A                      A
 Frequencies --    94.6471               101.5481               153.4588
 Red. masses --     5.6132                 3.4712                 3.2938
 Frc consts  --     0.0296                 0.0211                 0.0457
 IR Inten    --     2.5816                 9.1402                 7.7915

                     7                      8                      9
                     A                      A                      A
 Frequencies --   195.9145               212.1987               230.0039
 Red. masses --     2.9792                 1.3337                 5.7671
 Frc consts  --     0.0674                 0.0354                 0.1798
 IR Inten    --    48.0732                69.6281                11.2544

                    10                     11                     12
                     A                      A                      A
 Frequencies --   237.4688               269.2133               308.5169
 Red. masses --     5.7850                 1.1330                 4.8748
 Frc consts  --     0.1922                 0.0484                 0.2734
 IR Inten    --     0.3921               105.9944                 1.4292

                    13                     14                     15
                     A                      A                      A
 Frequencies --   332.7868               362.3410               380.7791
 Red. masses --     5.2474                 5.8756                 5.7737
 Frc consts  --     0.3424                 0.4545                 0.4932
 IR Inten    --     1.8458                 6.8245                13.2118

                    16                     17                     18
                     A                      A                      A
 Frequencies --   410.3628               478.8658               492.3427
 Red. masses --     4.2129                 2.0829                 1.2028
 Frc consts  --     0.4180                 0.2814                 0.1718
 IR Inten    --     8.4792                50.7917                71.7706

                    19                     20                     21
                     A                      A                      A
 Frequencies --   525.0301               556.8865               577.9481
 Red. masses --     1.7012                 2.2580                 1.2287
 Frc consts  --     0.2763                 0.4126                 0.2418
 IR Inten    --    20.5437                 7.2026               160.9829

                    22                     23                     24
                     A                      A                      A
 Frequencies --   595.6774               687.1162               745.3862
 Red. masses --     2.2745                 4.3224                 3.5366
 Frc consts  --     0.4755                 1.2024                 1.1577
 IR Inten    --    31.7203                64.7593                12.6829

                    25                     26                     27
                     A                      A                      A
 Frequencies --   863.2743               872.2688               944.9250
 Red. masses --     3.5341                 2.8971                 2.5261
 Frc consts  --     1.5518                 1.2987                 1.3289
 IR Inten    --    38.9791                 5.3410                18.0527

                    28                     29                     30
                     A                      A                      A
 Frequencies --   999.4582              1011.1466              1025.9324
 Red. masses --     2.3675                 3.4915                 6.8139
 Frc consts  --     1.3934                 2.1033                 4.2255
 IR Inten    --     9.5936                36.2772               165.6010

                    31                     32                     33
                     A                      A                      A
 Frequencies --  1070.0756              1076.4003              1088.8688
 Red. masses --     4.1283                 3.4934                 3.0771
 Frc consts  --     2.7851                 2.3848                 2.1495
 IR Inten    --    92.0041                13.8015               106.9154

                    34                     35                     36
                     A                      A                      A
 Frequencies --  1114.8935              1124.6526              1153.4870
 Red. masses --     2.7281                 4.5154                 2.2821
 Frc consts  --     1.9979                 3.3650                 1.7890
 IR Inten    --    46.5784                39.6142                 4.4665

                    37                     38                     39
                     A                      A                      A
 Frequencies --  1211.3767              1220.9854              1238.9979
 Red. masses --     1.1480                 1.1224                 1.1951
 Frc consts  --     0.9926                 0.9859                 1.0810
 IR Inten    --    25.5745                28.5711                73.1093

                    40                     41                     42
                     A                      A                      A
 Frequencies --  1261.9934              1263.7468              1274.1576
 Red. masses --     1.3710                 1.1304                 1.1490
 Frc consts  --     1.2865                 1.0636                 1.0991
 IR Inten    --     7.9026                 9.8087                22.2275

                    43                     44                     45
                     A                      A                      A
 Frequencies --  1292.2726              1315.8704              1369.6835
 Red. masses --     1.2333                 1.2425                 1.2795
 Frc consts  --     1.2135                 1.2676                 1.4143
 IR Inten    --    41.9406                30.8677                11.6956

                    46                     47                     48
                     A                      A                      A
 Frequencies --  1392.5045              1411.1002              1433.9395
 Red. masses --     1.2320                 1.4149                 1.2318
 Frc consts  --     1.4076                 1.6599                 1.4923
 IR Inten    --    12.7760                40.7674               169.7071

                    49                     50                     51
                     A                      A                      A
 Frequencies --  1443.9545              1451.8774              1457.4134
 Red. masses --     1.3750                 1.4770                 1.5198
 Frc consts  --     1.6891                 1.8344                 1.9019
 IR Inten    --     1.5751                 9.3064                27.0948

                    52                     53                     54
                     A                      A                      A
 Frequencies --  1493.7560              1518.0937              1788.7413
 Red. masses --     1.1499                 1.0848                10.8263
 Frc consts  --     1.5118                 1.4730                20.4092
 IR Inten    --    11.0163                 5.3486               143.2938

                    55                     56                     57
                     A                      A                      A
 Frequencies --  2954.7822              3001.3867              3018.4728
 Red. masses --     1.0689                 1.0557                 1.0823
 Frc consts  --     5.4983                 5.6032                 5.8102
 IR Inten    --    31.8846                33.8471                10.9751

                    58                     59                     60
                     A                      A                      A
 Frequencies --  3030.0157              3043.9426              3051.1284
 Red. masses --     1.0888                 1.1027                 1.0870
 Frc consts  --     5.8895                 6.0198                 5.9620
 IR Inten    --     2.6192                10.4953                35.5941

                    61                     62                     63
                     A                      A                      A
 Frequencies --  3069.7277              3650.3026              3709.6790
 Red. masses --     1.0908                 1.0645                 1.0648
 Frc consts  --     6.0563                 8.3574                 8.6336
 IR Inten    --    35.8168               113.3973                97.5215

                    64                     65                     66
                     A                      A                      A
 Frequencies --  3774.0384              3851.6825              3854.8032
 Red. masses --     1.0654                 1.0667                 1.0669
 Frc consts  --     8.9411                 9.3238                 9.3410
 IR Inten    --    94.1321                42.1426                45.4342

 - Thermochemistry -
 -------------------
 Temperature   298.150 Kelvin.  Pressure   1.00000 Atm.
 Atom     1 has atomic number  6 and mass  12.00000

 Molecular mass:   180.06339 amu.
 Principal axes and moments of inertia in atomic units:
                           1         2         3
     Eigenvalues --   920.519574122.034074557.48648
           X            0.99992   0.00738  -0.01002
           Y           -0.00749   0.99991  -0.01074
           Z            0.00994   0.01082   0.99989
 This molecule is an asymmetric top.
 Rotational symmetry number  1.
 Warning -- assumption of classical behavior for rotation
           may cause significant error
 Rotational temperatures (Kelvin)      0.09409     0.02101     0.01900
 Rotational constants (GHZ):           1.96057     0.43783     0.39599
 Zero-point vibrational energy     510310.1 (Joules/Mol)
                                  121.96704 (Kcal/Mol)
 Warning -- explicit consideration of  22 degrees of freedom as
           vibrations may cause significant error
 Vibrational temperatures:     62.35    77.71   108.68   136.18   146.10
          (Kelvin)            220.79   281.88   305.31   330.92   341.66
                              387.34   443.89   478.81   521.33   547.86
                              590.42   688.98   708.37   755.40   801.23
                              831.54   857.05   988.61  1072.44  1242.06
                             1255.00  1359.53  1438.00  1454.81  1476.09
                             1539.60  1548.70  1566.64  1604.08  1618.12
                             1659.61  1742.90  1756.72  1782.64  1815.72
                             1818.25  1833.23  1859.29  1893.24  1970.67
                             2003.50  2030.26  2063.12  2077.53  2088.93
                             2096.89  2149.18  2184.20  2573.60  4251.27
                             4318.32  4342.90  4359.51  4379.55  4389.89
                             4416.65  5251.96  5337.39  5429.99  5541.71
                             5546.20

 Zero-point correction=                           0.194367 (Hartree/Particle)
 Thermal correction to Energy=                    0.208122
 Thermal correction to Enthalpy=                  0.209066
 Thermal correction to Gibbs Free Energy=         0.153577
 Sum of electronic and zero-point Energies=           -687.173112
 Sum of electronic and thermal Energies=              -687.159357
 Sum of electronic and thermal Enthalpies=            -687.158413
 Sum of electronic and thermal Free Energies=         -687.213902

                     E (Thermal)             CV                S
                      KCal/Mol        Cal/Mol-Kelvin    Cal/Mol-Kelvin
 Total                  130.598             49.545            116.786
 Electronic               0.000              0.000              0.000
 Translational            0.889              2.981             41.471
 Rotational               0.889              2.981             31.226
 Vibrational            128.821             43.583             44.089
 Vibration     1          0.595              1.980              5.101
 Vibration     2          0.596              1.976              4.665
 Vibration     3          0.599              1.965              4.004
 Vibration     4          0.603              1.953              3.562
 Vibration     5          0.604              1.948              3.424
 Vibration     6          0.619              1.899              2.629
 Vibration     7          0.636              1.846              2.171
 Vibration     8          0.643              1.822              2.025
 Vibration     9          0.652              1.795              1.879
 Vibration    10          0.656              1.783              1.822
 Vibration    11          0.674              1.730              1.601
 Vibration    12          0.698              1.658              1.370
 Vibration    13          0.715              1.610              1.247
 Vibration    14          0.736              1.550              1.112
 Vibration    15          0.751              1.511              1.036
 Vibration    16          0.775              1.448              0.925
 Vibration    17          0.835              1.297              0.713
 Vibration    18          0.848              1.267              0.678
 Vibration    19          0.880              1.195              0.598
 Vibration    20          0.912              1.125              0.530
 Vibration    21          0.934              1.079              0.489
 Vibration    22          0.953              1.041              0.457

 Normal termination of Gaussian 09 at Mon Jan 22 21:46:21 2018.
