 Gaussian 09, Revision B.01,
 Gaussian 09:  EM64L-G09RevB.01 12-Aug-2010

 ------------------------------
 #B3LYP/6-311G** fopt test freq
 ------------------------------

 --------------------------
 Sugars/R-S-S-Fructuose.xyz
 --------------------------
 Symbolic Z-matrix:
 Charge =  0 Multiplicity = 1

 SCF Done:  E(RB3LYP) =  -687.318462976     A.U. after   14 cycles
 SCF Done:  E(RB3LYP) =  -687.329552100     A.U. after   13 cycles
 SCF Done:  E(RB3LYP) =  -687.333871637     A.U. after   13 cycles
 SCF Done:  E(RB3LYP) =  -687.335339222     A.U. after   14 cycles
 SCF Done:  E(RB3LYP) =  -687.338664078     A.U. after   12 cycles
 SCF Done:  E(RB3LYP) =  -687.341223053     A.U. after   12 cycles
 SCF Done:  E(RB3LYP) =  -687.344764824     A.U. after   15 cycles
 SCF Done:  E(RB3LYP) =  -687.346050555     A.U. after   11 cycles
 SCF Done:  E(RB3LYP) =  -687.347132678     A.U. after   12 cycles
 SCF Done:  E(RB3LYP) =  -687.347503649     A.U. after   12 cycles
 SCF Done:  E(RB3LYP) =  -687.363593682     A.U. after   11 cycles
 SCF Done:  E(RB3LYP) =  -687.363647144     A.U. after   15 cycles
 SCF Done:  E(RB3LYP) =  -687.363454147     A.U. after   11 cycles
 SCF Done:  E(RB3LYP) =  -687.363675074     A.U. after   11 cycles
 SCF Done:  E(RB3LYP) =  -687.363686187     A.U. after    9 cycles
 SCF Done:  E(RB3LYP) =  -687.363688094     A.U. after    7 cycles
 SCF Done:  E(RB3LYP) =  -687.363689110     A.U. after    8 cycles
 SCF Done:  E(RB3LYP) =  -687.363689731     A.U. after    8 cycles
 SCF Done:  E(RB3LYP) =  -687.363689916     A.U. after    7 cycles
 Optimization completed.
    -- Stationary point found.
 Normal termination of Gaussian 09 at Mon Jan 22 22:56:10 2018.

 ----------------------------------------------------------------------
 #N Geom=AllCheck Guess=TCheck SCRF=Check Test GenChk RB3LYP/6-311G(d,p
 ) Freq
 ----------------------------------------------------------------------

 Sugars/R-S-S-Fructuose.xyz
 --------------------------
 Redundant internal coordinates taken from checkpoint file:
 /home/g09scr/Gau-13189.chk
 Charge =  0 Multiplicity = 1

                         Standard orientation:
 ---------------------------------------------------------------------
 Center     Atomic      Atomic             Coordinates (Angstroms)
 Number     Number       Type             X           Y           Z
 ---------------------------------------------------------------------
      1          6           0        3.105444   -0.649801   -0.204004
      2          8           0        4.321244    0.052886   -0.091414
      3          1           0        5.001932   -0.474381   -0.518027
      4          1           0        3.090729   -1.583093    0.379283
      5          1           0        2.858915   -0.930659   -1.238055
      6          6           0        1.965109    0.223585    0.277346
      7          8           0        2.110395    1.385515    0.586181
      8          6           0        0.600308   -0.456126    0.372662
      9          6           0       -0.558781    0.569324    0.244735
     10          6           0       -1.855419   -0.132964   -0.155893
     11          6           0       -3.088079    0.719285    0.087477
     12          1           0       -3.034822    1.625036   -0.524405
     13          1           0       -3.136064    0.996575    1.148819
     14          8           0       -4.204032   -0.105216   -0.270617
     15          1           0       -5.014297    0.334147    0.000636
     16          1           0        0.548048   -0.863949    1.394905
     17          8           0        0.553771   -1.516134   -0.570054
     18          1           0       -0.234658   -2.029090   -0.343088
     19          1           0       -0.681842    1.034816    1.232967
     20          8           0       -0.343999    1.561300   -0.746089
     21          1           0        0.415998    2.079073   -0.450710
     22          1           0       -1.786711   -0.352688   -1.227973
     23          8           0       -1.958345   -1.356337    0.584817
     24          1           0       -2.870999   -1.651713    0.469124
 ---------------------------------------------------------------------

 SCF Done:  E(RB3LYP) =  -687.363689916     A.U. after    1 cycles

 The electronic state is 1-A.
 Alpha  occ. eigenvalues --  -19.13510 -19.13126 -19.12151 -19.12000 -19.11847
 Alpha  occ. eigenvalues --  -19.11359 -10.26695 -10.23343 -10.23061 -10.22921
 Alpha  occ. eigenvalues --  -10.22687 -10.22677  -1.06671  -1.05417  -1.03610
 Alpha  occ. eigenvalues --   -1.02659  -1.02152  -1.02002  -0.78381  -0.75678
 Alpha  occ. eigenvalues --   -0.71876  -0.66223  -0.59262  -0.55850  -0.54131
 Alpha  occ. eigenvalues --   -0.53286  -0.52507  -0.51151  -0.50146  -0.48789
 Alpha  occ. eigenvalues --   -0.46984  -0.45963  -0.44861  -0.43982  -0.41469
 Alpha  occ. eigenvalues --   -0.40428  -0.38870  -0.37478  -0.36469  -0.36171
 Alpha  occ. eigenvalues --   -0.35077  -0.33973  -0.30399  -0.29725  -0.29113
 Alpha  occ. eigenvalues --   -0.28168  -0.26897  -0.25621
 Alpha virt. eigenvalues --   -0.03069   0.01744   0.03067   0.05090   0.05392
 Alpha virt. eigenvalues --    0.07915   0.07984   0.09837   0.10506   0.11398
 Alpha virt. eigenvalues --    0.12272   0.12787   0.13499   0.15140   0.17592

 Mulliken atomic charges:
              1
     1  C    0.013858
     2  O   -0.379160
     3  H    0.240445
     4  H    0.114691
     5  H    0.131321
     6  C    0.154101
     7  O   -0.316781
     8  C    0.050041
     9  C    0.071896
    10  C   -0.006101
    11  C    0.015832
    12  H    0.120740
    13  H    0.093431
    14  O   -0.428127
    15  H    0.252637
    16  H    0.140478
    17  O   -0.420979
    18  H    0.255932
    19  H    0.105742
    20  O   -0.411749
    21  H    0.254469
    22  H    0.136746
    23  O   -0.446879
    24  H    0.257416
 Sum of Mulliken atomic charges =   0.00000

 Dipole moment (field-independent basis, Debye):
    X=             -2.4608    Y=             -1.8084    Z=              0.7446  Tot=              3.1433
 Quadrupole moment (field-independent basis, Debye-Ang):
   XX=            -54.2626   YY=            -71.2598   ZZ=            -72.7081
   XY=            -12.3475   XZ=             -8.1310   YZ=              0.1072

  Exact polarizability: 109.719  -1.274  84.421  -2.320   2.468  68.535
 Approx polarizability: 124.130   3.825 130.586  -1.683   5.809 106.514

                     1                      2                      3
                     A                      A                      A
 Frequencies --    34.8064                64.3356                93.2557
 Red. masses --     5.9871                 7.5705                 3.8442
 Frc consts  --     0.0043                 0.0185                 0.0197
 IR Inten    --     2.4896                 2.5407                10.0266

                     4                      5                      6
                     A                      A                      A
 Frequencies --   107.2388               120.9938               134.1291
 Red. masses --     5.2826                 2.7958                 3.7784
 Frc consts  --     0.0358                 0.0241                 0.0401
 IR Inten    --    14.1703                 4.8311                 4.6669

                     7                      8                      9
                     A                      A                      A
 Frequencies --   200.9281               220.6564               242.4370
 Red. masses --     4.9579                 1.1716                 3.6211
 Frc consts  --     0.1179                 0.0336                 0.1254
 IR Inten    --     6.7718                90.5496                 2.0496

                    10                     11                     12
                     A                      A                      A
 Frequencies --   255.6078               261.8251               297.1301
 Red. masses --     3.7620                 1.4136                 5.2384
 Frc consts  --     0.1448                 0.0571                 0.2725
 IR Inten    --    31.5589                95.9058                 5.5975

                    13                     14                     15
                     A                      A                      A
 Frequencies --   309.1059               333.7753               392.2590
 Red. masses --     6.4423                 7.1187                 4.0140
 Frc consts  --     0.3627                 0.4673                 0.3639
 IR Inten    --     6.2022                 3.6942                 0.8166

                    16                     17                     18
                     A                      A                      A
 Frequencies --   438.9739               499.6492               523.6557
 Red. masses --     3.0621                 4.6687                 1.4523
 Frc consts  --     0.3477                 0.6867                 0.2346
 IR Inten    --     6.9338                26.4933                54.3567

                    19                     20                     21
                     A                      A                      A
 Frequencies --   529.5088               551.5609               569.7153
 Red. masses --     1.9278                 1.1668                 3.3628
 Frc consts  --     0.3185                 0.2091                 0.6431
 IR Inten    --    15.6979               169.5401                70.7580

                    22                     23                     24
                     A                      A                      A
 Frequencies --   614.9813               673.9711               756.1419
 Red. masses --     1.0861                 3.7652                 3.5521
 Frc consts  --     0.2420                 1.0077                 1.1966
 IR Inten    --   110.8155                39.0315                27.5093

                    25                     26                     27
                     A                      A                      A
 Frequencies --   797.4513               869.1708               906.6396
 Red. masses --     4.2930                 3.0999                 2.4320
 Frc consts  --     1.6085                 1.3798                 1.1778
 IR Inten    --    15.8303                 6.7817                48.0199

                    28                     29                     30
                     A                      A                      A
 Frequencies --   982.4721              1028.1009              1058.3004
 Red. masses --     2.5048                 3.2613                 2.8282
 Frc consts  --     1.4245                 2.0310                 1.8663
 IR Inten    --    19.6265                46.5633                60.9505

                    31                     32                     33
                     A                      A                      A
 Frequencies --  1069.0232              1072.6168              1096.2901
 Red. masses --     3.7519                 3.5643                 3.5731
 Frc consts  --     2.5263                 2.4161                 2.5302
 IR Inten    --    18.8762               181.7597                54.4594

                    34                     35                     36
                     A                      A                      A
 Frequencies --  1110.1303              1154.0443              1156.6988
 Red. masses --     2.7239                 2.5978                 3.3482
 Frc consts  --     1.9778                 2.0384                 2.6394
 IR Inten    --    26.2954                47.8986                44.3854

                    37                     38                     39
                     A                      A                      A
 Frequencies --  1207.9172              1217.7884              1240.5519
 Red. masses --     1.1781                 1.1208                 1.2343
 Frc consts  --     1.0127                 0.9793                 1.1192
 IR Inten    --    52.8396                18.6307                39.3901

                    40                     41                     42
                     A                      A                      A
 Frequencies --  1248.9613              1267.4412              1270.8778
 Red. masses --     1.2386                 1.1372                 1.1522
 Frc consts  --     1.1383                 1.0763                 1.0965
 IR Inten    --    79.3616                12.7391                22.7686

                    43                     44                     45
                     A                      A                      A
 Frequencies --  1309.5019              1341.0534              1350.6703
 Red. masses --     1.1566                 1.3063                 1.2666
 Frc consts  --     1.1686                 1.3842                 1.3614
 IR Inten    --    13.0961                17.0651               120.8521

                    46                     47                     48
                     A                      A                      A
 Frequencies --  1395.3004              1400.1097              1428.5159
 Red. masses --     1.2519                 1.2747                 1.3440
 Frc consts  --     1.4361                 1.4722                 1.6159
 IR Inten    --     2.9223                27.5609                27.7108

                    49                     50                     51
                     A                      A                      A
 Frequencies --  1442.6034              1452.9106              1471.8115
 Red. masses --     1.4054                 1.5145                 1.8261
 Frc consts  --     1.7232                 1.8837                 2.3307
 IR Inten    --     7.2096                 2.5683                 5.5861

                    52                     53                     54
                     A                      A                      A
 Frequencies --  1478.8275              1515.6810              1790.7636
 Red. masses --     1.2295                 1.0847                11.6502
 Frc consts  --     1.5842                 1.4682                22.0120
 IR Inten    --     8.2862                 5.6725               132.1537

                    55                     56                     57
                     A                      A                      A
 Frequencies --  2962.8756              2977.8609              2988.1539
 Red. masses --     1.0801                 1.0607                 1.0806
 Frc consts  --     5.5868                 5.5416                 5.6848
 IR Inten    --    10.7867                29.3619                19.6249

                    58                     59                     60
                     A                      A                      A
 Frequencies --  2996.2560              3007.8101              3027.8118
 Red. masses --     1.0659                 1.0974                 1.0823
 Frc consts  --     5.6379                 5.8494                 5.8458
 IR Inten    --    51.3950                19.5891                35.9864

                    61                     62                     63
                     A                      A                      A
 Frequencies --  3066.5587              3745.0565              3775.4792
 Red. masses --     1.1024                 1.0659                 1.0655
 Frc consts  --     6.1079                 8.8080                 8.9485
 IR Inten    --    37.2601               156.2966                91.7903

                    64                     65                     66
                     A                      A                      A
 Frequencies --  3779.7086              3850.9583              3855.9217
 Red. masses --     1.0655                 1.0667                 1.0669
 Frc consts  --     8.9684                 9.3201                 9.3458
 IR Inten    --    56.1072                43.0454                44.4725

 - Thermochemistry -
 -------------------
 Temperature   298.150 Kelvin.  Pressure   1.00000 Atm.
 Atom     1 has atomic number  6 and mass  12.00000

 Molecular mass:   180.06339 amu.
 Principal axes and moments of inertia in atomic units:
                           1         2         3
     Eigenvalues --   766.457524237.156124720.42655
           X            0.99988  -0.01431  -0.00572
           Y            0.01434   0.99989   0.00479
           Z            0.00565  -0.00487   0.99997
 This molecule is an asymmetric top.
 Rotational symmetry number  1.
 Warning -- assumption of classical behavior for rotation
           may cause significant error
 Rotational temperatures (Kelvin)      0.11301     0.02044     0.01835
 Rotational constants (GHZ):           2.35465     0.42593     0.38233
 Zero-point vibrational energy     510765.5 (Joules/Mol)
                                  122.07588 (Kcal/Mol)
 Warning -- explicit consideration of  22 degrees of freedom as
           vibrations may cause significant error
 Vibrational temperatures:     50.08    92.56   134.17   154.29   174.08
          (Kelvin)            192.98   289.09   317.47   348.81   367.76
                              376.71   427.50   444.73   480.23   564.37
                              631.58   718.88   753.42   761.84   793.57
                              819.69   884.82   969.69  1087.92  1147.35
                             1250.54  1304.45  1413.56  1479.21  1522.66
                             1538.08  1543.25  1577.31  1597.23  1660.41
                             1664.23  1737.92  1752.12  1784.88  1796.97
                             1823.56  1828.51  1884.08  1929.47  1943.31
                             2007.52  2014.44  2055.31  2075.58  2090.41
                             2117.61  2127.70  2180.72  2576.51  4262.91
                             4284.47  4299.28  4310.94  4327.56  4356.34
                             4412.09  5388.29  5432.07  5438.15  5540.66
                             5547.80

 Zero-point correction=                           0.194540 (Hartree/Particle)
 Thermal correction to Energy=                    0.208190
 Thermal correction to Enthalpy=                  0.209134
 Thermal correction to Gibbs Free Energy=         0.154110
 Sum of electronic and zero-point Energies=           -687.169150
 Sum of electronic and thermal Energies=              -687.155500
 Sum of electronic and thermal Enthalpies=            -687.154556
 Sum of electronic and thermal Free Energies=         -687.209580

                     E (Thermal)             CV                S
                      KCal/Mol        Cal/Mol-Kelvin    Cal/Mol-Kelvin
 Total                  130.641             49.485            115.809
 Electronic               0.000              0.000              0.000
 Translational            0.889              2.981             41.471
 Rotational               0.889              2.981             31.106
 Vibrational            128.864             43.523             43.232
 Vibration     1          0.594              1.983              5.535
 Vibration     2          0.597              1.971              4.320
 Vibration     3          0.602              1.954              3.591
 Vibration     4          0.606              1.943              3.318
 Vibration     5          0.609              1.932              3.084
 Vibration     6          0.613              1.919              2.886
 Vibration     7          0.638              1.839              2.125
 Vibration     8          0.647              1.810              1.954
 Vibration     9          0.659              1.775              1.785
 Vibration    10          0.666              1.753              1.692
 Vibration    11          0.669              1.743              1.650
 Vibration    12          0.691              1.679              1.433
 Vibration    13          0.698              1.656              1.367
 Vibration    14          0.715              1.608              1.242
 Vibration    15          0.760              1.487              0.992
 Vibration    16          0.799              1.385              0.830
 Vibration    17          0.855              1.251              0.659
 Vibration    18          0.879              1.198              0.602
 Vibration    19          0.884              1.185              0.588
 Vibration    20          0.907              1.136              0.541
 Vibration    21          0.926              1.097              0.505
 Vibration    22          0.974              1.000              0.425

 Normal termination of Gaussian 09 at Mon Jan 22 23:02:31 2018.
