 Gaussian 09, Revision B.01,
 Gaussian 09:  EM64L-G09RevB.01 12-Aug-2010

 ------------------------------
 #B3LYP/6-311G** fopt test freq
 ------------------------------

 --------------------------
 Sugars/S-R-S-Fructuose.xyz
 --------------------------
 Symbolic Z-matrix:
 Charge =  0 Multiplicity = 1

 SCF Done:  E(RB3LYP) =  -687.360276561     A.U. after   14 cycles
 SCF Done:  E(RB3LYP) =  -687.360818489     A.U. after   11 cycles
 SCF Done:  E(RB3LYP) =  -687.361338894     A.U. after   11 cycles
 SCF Done:  E(RB3LYP) =  -687.361498803     A.U. after   12 cycles
 SCF Done:  E(RB3LYP) =  -687.361578355     A.U. after   12 cycles
 SCF Done:  E(RB3LYP) =  -687.361732445     A.U. after   12 cycles
 SCF Done:  E(RB3LYP) =  -687.361932625     A.U. after   12 cycles
 SCF Done:  E(RB3LYP) =  -687.362090860     A.U. after   12 cycles
 SCF Done:  E(RB3LYP) =  -687.362352441     A.U. after   11 cycles
 SCF Done:  E(RB3LYP) =  -687.362417205     A.U. after   12 cycles
 SCF Done:  E(RB3LYP) =  -687.362439218     A.U. after   10 cycles
 SCF Done:  E(RB3LYP) =  -687.362449260     A.U. after    9 cycles
 SCF Done:  E(RB3LYP) =  -687.362454632     A.U. after    9 cycles
 SCF Done:  E(RB3LYP) =  -687.362458437     A.U. after    9 cycles
 SCF Done:  E(RB3LYP) =  -687.362460018     A.U. after    9 cycles
 SCF Done:  E(RB3LYP) =  -687.362460752     A.U. after    7 cycles
 SCF Done:  E(RB3LYP) =  -687.362461153     A.U. after    7 cycles
 SCF Done:  E(RB3LYP) =  -687.362461325     A.U. after    7 cycles
 Optimization completed.
    -- Stationary point found.

 The electronic state is 1-A.
 Alpha  occ. eigenvalues --  -19.13621 -19.12911 -19.12183 -19.11876 -19.11415
 Alpha  occ. eigenvalues --  -19.10891 -10.26590 -10.23540 -10.23332 -10.23213
 Alpha  occ. eigenvalues --  -10.22674 -10.22618  -1.06695  -1.05525  -1.03482
 Alpha  occ. eigenvalues --   -1.02596  -1.01901  -1.01483  -0.78850  -0.75524
 Alpha  occ. eigenvalues --   -0.71898  -0.66066  -0.59398  -0.55517  -0.54141
 Alpha  occ. eigenvalues --   -0.53139  -0.52820  -0.52157  -0.49680  -0.48095
 Alpha  occ. eigenvalues --   -0.46759  -0.46177  -0.44505  -0.43453  -0.42677
 Alpha  occ. eigenvalues --   -0.41241  -0.38545  -0.37506  -0.37031  -0.35635
 Alpha  occ. eigenvalues --   -0.34911  -0.33613  -0.29968  -0.29493  -0.29063
 Alpha  occ. eigenvalues --   -0.28184  -0.26654  -0.25499
 Alpha virt. eigenvalues --   -0.02999   0.01923   0.02871   0.04236   0.06782
 Alpha virt. eigenvalues --    0.07411   0.07648   0.09681   0.10964   0.11512
 Alpha virt. eigenvalues --    0.12459   0.13203   0.14117   0.15806   0.17646

 Mulliken atomic charges:
              1
     1  C    0.009181
     2  O   -0.380142
     3  H    0.240684
     4  H    0.139032
     5  H    0.110436
     6  C    0.174613
     7  O   -0.306798
     8  C    0.046801
     9  C    0.023973
    10  C    0.042509
    11  C    0.011450
    12  H    0.097083
    13  H    0.128539
    14  O   -0.431452
    15  H    0.254699
    16  H    0.113108
    17  O   -0.424541
    18  H    0.270484
    19  H    0.115007
    20  O   -0.407468
    21  H    0.250705
    22  H    0.115903
    23  O   -0.454885
    24  H    0.261079
 Sum of Mulliken atomic charges =   0.00000

 Dipole moment (field-independent basis, Debye):
    X=              2.1669    Y=              1.2098    Z=             -0.7753  Tot=              2.6000
 Quadrupole moment (field-independent basis, Debye-Ang):
   XX=            -54.2217   YY=            -73.1437   ZZ=            -71.3124
   XY=            -12.7985   XZ=              1.3579   YZ=             -1.1107

 Normal termination of Gaussian 09 at Wed Jan 24 13:57:59 2018.

 ----------------------------------------------------------------------
 #N Geom=AllCheck Guess=TCheck SCRF=Check Test GenChk RB3LYP/6-311G(d,p
 ) Freq
 ----------------------------------------------------------------------

 Sugars/S-R-S-Fructuose.xyz
 --------------------------
 Redundant internal coordinates taken from checkpoint file:
 /home/g09scr/Gau-31192.chk
 Charge =  0 Multiplicity = 1

                         Standard orientation:
 ---------------------------------------------------------------------
 Center     Atomic      Atomic             Coordinates (Angstroms)
 Number     Number       Type             X           Y           Z
 ---------------------------------------------------------------------
      1          6           0       -3.197388    0.608933   -0.115209
      2          8           0       -4.370278   -0.172252   -0.100789
      3          1           0       -5.102200    0.406217    0.129301
      4          1           0       -3.057185    1.201639    0.798531
      5          1           0       -3.168537    1.319096   -0.956987
      6          6           0       -1.981276   -0.289885   -0.222898
      7          8           0       -2.048327   -1.496347   -0.166750
      8          6           0       -0.640265    0.441480   -0.393541
      9          6           0        0.537744   -0.531623   -0.186664
     10          6           0        1.891421    0.125419   -0.457962
     11          6           0        3.061888   -0.773854   -0.085003
     12          1           0        3.052333   -1.684217   -0.697300
     13          1           0        2.976774   -1.045084    0.969627
     14          8           0        4.240734    0.004978   -0.334003
     15          1           0        4.972321   -0.382903    0.153115
     16          1           0       -0.599524    0.786290   -1.444844
     17          8           0       -0.668693    1.541484    0.497296
     18          1           0        0.249206    1.836708    0.603594
     19          1           0        0.418969   -1.323536   -0.939981
     20          8           0        0.545248   -1.092088    1.116847
     21          1           0       -0.244506   -1.643038    1.175739
     22          1           0        1.948029    0.342764   -1.534852
     23          8           0        1.999588    1.353035    0.269811
     24          1           0        2.935402    1.592764    0.252415
 ---------------------------------------------------------------------

 SCF Done:  E(RB3LYP) =  -687.362461325     A.U. after    1 cycles
