 Gaussian 09, Revision B.01,
 Gaussian 09:  EM64L-G09RevB.01 12-Aug-2010

 ------------------------------
 #B3LYP/6-311G** fopt test freq
 ------------------------------

 --------------------------
 Sugars/S-S-R-Fructuose.xyz
 --------------------------
 Symbolic Z-matrix:
 Charge =  0 Multiplicity = 1

 SCF Done:  E(RB3LYP) =  -687.317732713     A.U. after   14 cycles
 SCF Done:  E(RB3LYP) =  -687.329611802     A.U. after   13 cycles
 SCF Done:  E(RB3LYP) =  -687.333963290     A.U. after   13 cycles
 SCF Done:  E(RB3LYP) =  -687.335933187     A.U. after   13 cycles
 SCF Done:  E(RB3LYP) =  -687.338868612     A.U. after   12 cycles
 SCF Done:  E(RB3LYP) =  -687.341397851     A.U. after   12 cycles
 SCF Done:  E(RB3LYP) =  -687.345676355     A.U. after   14 cycles
 SCF Done:  E(RB3LYP) =  -687.347676744     A.U. after   12 cycles
 SCF Done:  E(RB3LYP) =  -687.350780159     A.U. after   14 cycles
 SCF Done:  E(RB3LYP) =  -687.352840215     A.U. after   12 cycles
 SCF Done:  E(RB3LYP) =  -687.366818270     A.U. after   12 cycles
 SCF Done:  E(RB3LYP) =  -687.367077551     A.U. after   13 cycles
 SCF Done:  E(RB3LYP) =  -687.367440232     A.U. after   11 cycles
 SCF Done:  E(RB3LYP) =  -687.367467337     A.U. after   10 cycles
 SCF Done:  E(RB3LYP) =  -687.367476179     A.U. after    9 cycles
 SCF Done:  E(RB3LYP) =  -687.367478457     A.U. after    8 cycles
 SCF Done:  E(RB3LYP) =  -687.367478969     A.U. after    7 cycles
 SCF Done:  E(RB3LYP) =  -687.367479308     A.U. after    7 cycles
 SCF Done:  E(RB3LYP) =  -687.367479374     A.U. after    7 cycles
 Optimization completed.
    -- Stationary point found.
 Normal termination of Gaussian 09 at Tue Jan 23 02:49:39 2018.

 ----------------------------------------------------------------------
 #N Geom=AllCheck Guess=TCheck SCRF=Check Test GenChk RB3LYP/6-311G(d,p
 ) Freq
 ----------------------------------------------------------------------

 Sugars/S-S-R-Fructuose.xyz
 --------------------------
 Redundant internal coordinates taken from checkpoint file:
 /home/g09scr/Gau-20132.chk
 Charge =  0 Multiplicity = 1

                         Standard orientation:
 ---------------------------------------------------------------------
 Center     Atomic      Atomic             Coordinates (Angstroms)
 Number     Number       Type             X           Y           Z
 ---------------------------------------------------------------------
      1          6           0        2.678742   -0.939242    0.270945
      2          8           0        4.009799   -0.968963   -0.193268
      3          1           0        4.315390   -1.878316   -0.138258
      4          1           0        2.610039   -1.096996    1.360144
      5          1           0        2.033245   -1.693303   -0.197145
      6          6           0        2.060870    0.408874   -0.018529
      7          8           0        2.646990    1.291228   -0.605606
      8          6           0        0.627728    0.684083    0.469789
      9          6           0       -0.428195   -0.101407   -0.359938
     10          6           0       -1.845297    0.253252    0.108598
     11          6           0       -2.905857   -0.174082   -0.898956
     12          1           0       -2.730215   -1.214946   -1.193742
     13          1           0       -2.854468    0.466652   -1.788051
     14          8           0       -4.164888   -0.033213   -0.231391
     15          1           0       -4.837326   -0.499921   -0.734632
     16          1           0        0.528879    0.376320    1.518402
     17          8           0        0.369098    2.064068    0.353016
     18          1           0        1.117775    2.418242   -0.157126
     19          1           0       -0.306527    0.190564   -1.407974
     20          8           0       -0.243923   -1.508435   -0.278236
     21          1           0       -0.735860   -1.774871    0.514193
     22          1           0       -1.911526    1.331126    0.280284
     23          8           0       -2.037528   -0.459698    1.335583
     24          1           0       -2.993735   -0.493319    1.471670
 ---------------------------------------------------------------------

 SCF Done:  E(RB3LYP) =  -687.367479374     A.U. after    1 cycles

 The electronic state is 1-A.
 Alpha  occ. eigenvalues --  -19.13954 -19.12963 -19.12836 -19.12578 -19.12067
 Alpha  occ. eigenvalues --  -19.11341 -10.26745 -10.23771 -10.23217 -10.23162
 Alpha  occ. eigenvalues --  -10.23019 -10.22972  -1.07440  -1.06101  -1.04127
 Alpha  occ. eigenvalues --   -1.03118  -1.01879  -1.01661  -0.78737  -0.75995
 Alpha  occ. eigenvalues --   -0.71490  -0.65491  -0.61242  -0.56429  -0.55206
 Alpha  occ. eigenvalues --   -0.53381  -0.52282  -0.50076  -0.49451  -0.49250
 Alpha  occ. eigenvalues --   -0.48382  -0.47267  -0.45140  -0.43998  -0.42070
 Alpha  occ. eigenvalues --   -0.40470  -0.38109  -0.37729  -0.36544  -0.36119
 Alpha  occ. eigenvalues --   -0.35234  -0.34515  -0.31379  -0.30111  -0.29149
 Alpha  occ. eigenvalues --   -0.28281  -0.27294  -0.26451
 Alpha virt. eigenvalues --   -0.02991   0.01559   0.02977   0.05075   0.05622
 Alpha virt. eigenvalues --    0.06903   0.07642   0.09678   0.10410   0.11357
 Alpha virt. eigenvalues --    0.12965   0.13244   0.14283   0.15883   0.16412

 Mulliken atomic charges:
              1
     1  C    0.003267
     2  O   -0.379120
     3  H    0.240337
     4  H    0.106927
     5  H    0.143162
     6  C    0.162065
     7  O   -0.303504
     8  C    0.031973
     9  C    0.034897
    10  C   -0.001567
    11  C    0.024305
    12  H    0.098889
    13  H    0.105479
    14  O   -0.426082
    15  H    0.254498
    16  H    0.128057
    17  O   -0.403647
    18  H    0.246038
    19  H    0.123855
    20  O   -0.409451
    21  H    0.249002
    22  H    0.150304
    23  O   -0.438969
    24  H    0.259285
 Sum of Mulliken atomic charges =   0.00000

 Dipole moment (field-independent basis, Debye):
    X=             -3.2300    Y=             -3.6232    Z=             -0.2633  Tot=              4.8611
 Quadrupole moment (field-independent basis, Debye-Ang):
   XX=            -65.9275   YY=            -70.2919   ZZ=            -69.9074
   XY=             -4.1358   XZ=              9.6469   YZ=             -2.2824

  Exact polarizability: 107.289  -0.489  83.571  -1.849  -4.678  72.697
 Approx polarizability: 128.039   4.276 126.095  -9.352 -10.611 111.536

                     1                      2                      3
                     A                      A                      A
 Frequencies --    43.3371                54.0639                75.5467
 Red. masses --     6.3394                 3.8058                 5.1470
 Frc consts  --     0.0070                 0.0066                 0.0173
 IR Inten    --     1.3505                 6.6268                 1.2365

                     4                      5                      6
                     A                      A                      A
 Frequencies --    94.6599               101.4930               153.3761
 Red. masses --     5.6130                 3.4711                 3.2862
 Frc consts  --     0.0296                 0.0211                 0.0455
 IR Inten    --     2.6029                 9.1990                 7.9244

                     7                      8                      9
                     A                      A                      A
 Frequencies --   195.7611               211.6041               229.9969
 Red. masses --     2.8892                 1.3539                 5.7704
 Frc consts  --     0.0652                 0.0357                 0.1798
 IR Inten    --    49.8696                67.6510                11.3068

                    10                     11                     12
                     A                      A                      A
 Frequencies --   237.5192               269.3080               308.6203
 Red. masses --     5.7938                 1.1325                 4.8732
 Frc consts  --     0.1926                 0.0484                 0.2735
 IR Inten    --     0.3580               105.8969                 1.4110

                    13                     14                     15
                     A                      A                      A
 Frequencies --   332.8587               362.3784               380.7916
 Red. masses --     5.2548                 5.8674                 5.7710
 Frc consts  --     0.3430                 0.4540                 0.4930
 IR Inten    --     1.8956                 6.8422                13.2606

                    16                     17                     18
                     A                      A                      A
 Frequencies --   410.3950               478.7917               492.4202
 Red. masses --     4.2148                 2.0771                 1.2033
 Frc consts  --     0.4182                 0.2805                 0.1719
 IR Inten    --     8.4466                51.1586                71.5174

                    19                     20                     21
                     A                      A                      A
 Frequencies --   524.9733               556.9003               578.2067
 Red. masses --     1.7034                 2.2639                 1.2292
 Frc consts  --     0.2766                 0.4137                 0.2421
 IR Inten    --    20.5057                 7.3542               159.9191

                    22                     23                     24
                     A                      A                      A
 Frequencies --   595.6888               687.1507               745.4930
 Red. masses --     2.2683                 4.3228                 3.5378
 Frc consts  --     0.4742                 1.2026                 1.1584
 IR Inten    --    32.4721                64.7211                12.6841

                    25                     26                     27
                     A                      A                      A
 Frequencies --   863.2662               872.2079               944.9555
 Red. masses --     3.5352                 2.8927                 2.5255
 Frc consts  --     1.5522                 1.2966                 1.3287
 IR Inten    --    38.8991                 5.3793                17.9957

                    28                     29                     30
                     A                      A                      A
 Frequencies --   999.5036              1011.3008              1025.8887
 Red. masses --     2.3613                 3.5025                 6.8184
 Frc consts  --     1.3898                 2.1105                 4.2280
 IR Inten    --     9.4239                36.3302               165.6561

                    31                     32                     33
                     A                      A                      A
 Frequencies --  1070.2081              1076.5697              1088.9827
 Red. masses --     4.1078                 3.5092                 3.0885
 Frc consts  --     2.7720                 2.3963                 2.1579
 IR Inten    --    92.3616                13.5723               107.4542

                    34                     35                     36
                     A                      A                      A
 Frequencies --  1114.9116              1124.5743              1153.5259
 Red. masses --     2.7210                 4.5159                 2.2850
 Frc consts  --     1.9928                 3.3649                 1.7914
 IR Inten    --    46.1622                39.5800                 4.4540

                    37                     38                     39
                     A                      A                      A
 Frequencies --  1211.4300              1220.9492              1238.8944
 Red. masses --     1.1481                 1.1220                 1.1951
 Frc consts  --     0.9927                 0.9855                 1.0808
 IR Inten    --    25.0852                28.9297                73.0018

                    40                     41                     42
                     A                      A                      A
 Frequencies --  1262.1160              1263.7742              1274.2368
 Red. masses --     1.3703                 1.1317                 1.1485
 Frc consts  --     1.2861                 1.0649                 1.0987
 IR Inten    --     8.0906                 9.4318                22.4984

                    43                     44                     45
                     A                      A                      A
 Frequencies --  1292.2998              1315.8588              1369.7803
 Red. masses --     1.2329                 1.2424                 1.2795
 Frc consts  --     1.2131                 1.2674                 1.4145
 IR Inten    --    42.0106                30.8343                11.7707

                    46                     47                     48
                     A                      A                      A
 Frequencies --  1392.4989              1411.1122              1433.9178
 Red. masses --     1.2321                 1.4150                 1.2320
 Frc consts  --     1.4076                 1.6600                 1.4925
 IR Inten    --    12.5860                40.9888               169.6912

                    49                     50                     51
                     A                      A                      A
 Frequencies --  1443.9712              1451.8941              1457.4455
 Red. masses --     1.3753                 1.4765                 1.5194
 Frc consts  --     1.6895                 1.8338                 1.9016
 IR Inten    --     1.5605                 9.3533                27.1041

                    52                     53                     54
                     A                      A                      A
 Frequencies --  1493.6640              1518.1481              1788.6425
 Red. masses --     1.1499                 1.0848                10.8251
 Frc consts  --     1.5115                 1.4731                20.4046
 IR Inten    --    11.0376                 5.3516               143.2436

                    55                     56                     57
                     A                      A                      A
 Frequencies --  2954.9244              3001.3019              3018.2190
 Red. masses --     1.0689                 1.0557                 1.0823
 Frc consts  --     5.4988                 5.6028                 5.8092
 IR Inten    --    31.8835                33.8353                11.0115

                    58                     59                     60
                     A                      A                      A
 Frequencies --  3030.0159              3043.8128              3050.9522
 Red. masses --     1.0888                 1.1028                 1.0870
 Frc consts  --     5.8895                 6.0197                 5.9613
 IR Inten    --     2.6218                10.5678                35.8055

                    61                     62                     63
                     A                      A                      A
 Frequencies --  3069.7387              3650.4102              3709.4428
 Red. masses --     1.0908                 1.0645                 1.0648
 Frc consts  --     6.0560                 8.3579                 8.6325
 IR Inten    --    35.6179               113.4275                97.6835

                    64                     65                     66
                     A                      A                      A
 Frequencies --  3773.9101              3851.7305              3854.7603
 Red. masses --     1.0654                 1.0667                 1.0669
 Frc consts  --     8.9406                 9.3241                 9.3408
 IR Inten    --    94.2043                42.1874                45.4287

 - Thermochemistry -
 -------------------
 Temperature   298.150 Kelvin.  Pressure   1.00000 Atm.
 Atom     1 has atomic number  6 and mass  12.00000

 Molecular mass:   180.06339 amu.
 Principal axes and moments of inertia in atomic units:
                           1         2         3
     Eigenvalues --   920.471964122.044144557.60640
           X            0.99992  -0.00740   0.01001
           Y            0.00751   0.99991  -0.01070
           Z           -0.00993   0.01078   0.99989
 This molecule is an asymmetric top.
 Rotational symmetry number  1.
 Warning -- assumption of classical behavior for rotation
           may cause significant error
 Rotational temperatures (Kelvin)      0.09410     0.02101     0.01900
 Rotational constants (GHZ):           1.96067     0.43783     0.39598
 Zero-point vibrational energy     510309.5 (Joules/Mol)
                                  121.96689 (Kcal/Mol)
 Warning -- explicit consideration of  22 degrees of freedom as
           vibrations may cause significant error
 Vibrational temperatures:     62.35    77.79   108.69   136.19   146.03
          (Kelvin)            220.67   281.66   304.45   330.91   341.74
                              387.47   444.04   478.91   521.38   547.87
                              590.47   688.87   708.48   755.32   801.25
                              831.91   857.06   988.66  1072.60  1242.05
                             1254.91  1359.58  1438.06  1455.03  1476.02
                             1539.79  1548.94  1566.80  1604.11  1618.01
                             1659.66  1742.98  1756.67  1782.49  1815.90
                             1818.29  1833.34  1859.33  1893.22  1970.81
                             2003.49  2030.27  2063.09  2077.55  2088.95
                             2096.94  2149.05  2184.27  2573.45  4251.47
                             4318.20  4342.54  4359.51  4379.36  4389.63
                             4416.66  5252.12  5337.05  5429.81  5541.77
                             5546.13

 Zero-point correction=                           0.194367 (Hartree/Particle)
 Thermal correction to Energy=                    0.208122
 Thermal correction to Enthalpy=                  0.209066
 Thermal correction to Gibbs Free Energy=         0.153576
 Sum of electronic and zero-point Energies=           -687.173113
 Sum of electronic and thermal Energies=              -687.159357
 Sum of electronic and thermal Enthalpies=            -687.158413
 Sum of electronic and thermal Free Energies=         -687.213903

                     E (Thermal)             CV                S
                      KCal/Mol        Cal/Mol-Kelvin    Cal/Mol-Kelvin
 Total                  130.599             49.544            116.789
 Electronic               0.000              0.000              0.000
 Translational            0.889              2.981             41.471
 Rotational               0.889              2.981             31.226
 Vibrational            128.821             43.582             44.092
 Vibration     1          0.595              1.980              5.100
 Vibration     2          0.596              1.976              4.663
 Vibration     3          0.599              1.965              4.003
 Vibration     4          0.603              1.953              3.561
 Vibration     5          0.604              1.948              3.425
 Vibration     6          0.619              1.899              2.630
 Vibration     7          0.636              1.846              2.173
 Vibration     8          0.643              1.823              2.030
 Vibration     9          0.652              1.795              1.879
 Vibration    10          0.656              1.783              1.821
 Vibration    11          0.674              1.730              1.601
 Vibration    12          0.698              1.657              1.370
 Vibration    13          0.715              1.610              1.246
 Vibration    14          0.736              1.550              1.112
 Vibration    15          0.751              1.511              1.036
 Vibration    16          0.775              1.448              0.925
 Vibration    17          0.835              1.297              0.713
 Vibration    18          0.848              1.267              0.677
 Vibration    19          0.880              1.195              0.599
 Vibration    20          0.912              1.125              0.530
 Vibration    21          0.935              1.078              0.489
 Vibration    22          0.953              1.041              0.457

 Normal termination of Gaussian 09 at Tue Jan 23 02:56:04 2018.
