 Gaussian 09, Revision B.01,
 Gaussian 09:  EM64L-G09RevB.01 12-Aug-2010

 ----------------------
 #B3LYP/3-21G fopt test
 ----------------------

 --------------------------------------
 SymmetricEnantiomers/s-tmp_rotated.xyz
 --------------------------------------
 Symbolic Z-matrix:
 Charge =  0 Multiplicity = 1

 SCF Done:  E(RB3LYP) =  -9590.11963155     A.U. after   15 cycles
 SCF Done:  E(RB3LYP) =  -9590.12929429     A.U. after   14 cycles
 SCF Done:  E(RB3LYP) =  -9590.12962022     A.U. after   11 cycles
 SCF Done:  E(RB3LYP) =  -9590.12966829     A.U. after    9 cycles
 SCF Done:  E(RB3LYP) =  -9590.12967522     A.U. after    8 cycles
 Optimization completed.
    -- Stationary point found.

                         Standard orientation:
 ---------------------------------------------------------------------
 Center     Atomic      Atomic             Coordinates (Angstroms)
 Number     Number       Type             X           Y           Z
 ---------------------------------------------------------------------
      1          6           0        0.461674    0.769343    0.438458
      2          9           0        0.552366    1.975374   -0.225637
      3         35           0        2.035287   -0.382594   -0.032455
      4         53           0       -1.499456   -0.186931   -0.018487
      5          1           0        0.494777    0.903713    1.515695
 ---------------------------------------------------------------------

 The electronic state is 1-A.
 Alpha  occ. eigenvalues -- **********-479.55789-175.58095-164.34406-164.34159
 Alpha  occ. eigenvalues -- -164.34158 -62.11256 -55.71692 -55.71225 -55.71217
 Alpha  occ. eigenvalues --  -35.74550 -30.90926 -30.90268 -30.90263 -24.59426
 Alpha  occ. eigenvalues --  -22.83440 -22.83231 -22.83228 -22.82760 -22.82760
 Alpha  occ. eigenvalues --  -10.31281  -8.62839  -6.42371  -6.40713  -6.40684
 Alpha  occ. eigenvalues --   -6.37759  -4.68764  -4.67072  -4.67060  -2.51702
 Alpha  occ. eigenvalues --   -2.51071  -2.51051  -2.49732  -2.49732  -2.06538
 Alpha  occ. eigenvalues --   -2.06013  -2.06005  -2.04566  -2.04566  -1.23419
 Alpha  occ. eigenvalues --   -0.81901  -0.71276  -0.63394  -0.53778  -0.48625
 Alpha  occ. eigenvalues --   -0.47457  -0.37078  -0.34870  -0.30356  -0.29181
 Alpha  occ. eigenvalues --   -0.27409  -0.26770
 Alpha virt. eigenvalues --   -0.08466  -0.01728   0.10316   0.12133   0.34051
 Alpha virt. eigenvalues --    0.38322   0.40170   0.40434   0.57522   0.61349
 Alpha virt. eigenvalues --    0.61905   0.67688   0.70594   0.75386   0.82186

 Mulliken atomic charges:
              1
     1  C   -0.333694
     2  F   -0.236425
     3  Br   0.107145
     4  I    0.175414
     5  H    0.287560
 Sum of Mulliken atomic charges =   0.00000

 Dipole moment (field-independent basis, Debye):
    X=             -0.1058    Y=             -0.1369    Z=              1.3807  Tot=              1.3915
 Quadrupole moment (field-independent basis, Debye-Ang):
   XX=            -56.7085   YY=            -58.7735   ZZ=            -56.1477
   XY=              0.2764   XZ=              0.8949   YZ=              1.8462

 1\1\GINC-TERMINUS\FOpt\RB3LYP\3-21G\C1H1Br1F1I1\FRODOX\05-Jan-2018\0\\
 #B3LYP/3-21G fopt test\\SymmetricEnantiomers/s-tmp_rotated.xyz\\0,1\C,
 0.7865958434,0.1971476649,-0.6542627865\F,1.3550867564,-0.8522608463,-
 1.3465895475\Br,1.707390662,0.4190372115,1.1143178554\I,-1.4098827638,
 -0.1353995428,-0.4693769856\H,0.9118735019,1.1378685127,-1.1824095359\
 \Version=EM64L-G09RevB.01\State=1-A\HF=-9590.1296752\RMSD=9.490e-09\RM
 SF=8.986e-05\Dipole=-0.0410822,0.5119995,-0.1894674\Quadrupole=0.34056
 84,-0.2923613,-0.0482071,1.2685169,-0.0930354,-1.3062996\PG=C01 [X(C1H

 Normal termination of Gaussian 09 at Fri Jan  5 13:35:28 2018.
