 Gaussian 09, Revision B.01,
 Gaussian 09:  EM64L-G09RevB.01 12-Aug-2010

 ----------------------------
 #B3LYP/6-31G* fopt test freq
 ----------------------------

 -----------------------------------
 IsomerC6H14/2,2-dimethyl-butane.xyz
 -----------------------------------
 Symbolic Z-matrix:
 Charge =  0 Multiplicity = 1

 SCF Done:  E(RB3LYP) =  -237.083081087     A.U. after   12 cycles
 SCF Done:  E(RB3LYP) =  -237.083663052     A.U. after   10 cycles
 SCF Done:  E(RB3LYP) =  -237.083686323     A.U. after    9 cycles
 SCF Done:  E(RB3LYP) =  -237.083690318     A.U. after    7 cycles
 Optimization completed.
    -- Stationary point found.
 Normal termination of Gaussian 09 at Tue Jan 23 15:08:40 2018.

 ----------------------------------------------------------------------
 #N Geom=AllCheck Guess=TCheck SCRF=Check Test GenChk RB3LYP/6-31G(d) F
 req
 ----------------------------------------------------------------------

 IsomerC6H14/2,2-dimethyl-butane.xyz
 -----------------------------------
 Redundant internal coordinates taken from checkpoint file:
 /home/g09scr/Gau-25970.chk
 Charge =  0 Multiplicity = 1

                         Standard orientation:
 ---------------------------------------------------------------------
 Center     Atomic      Atomic             Coordinates (Angstroms)
 Number     Number       Type             X           Y           Z
 ---------------------------------------------------------------------
      1          6           0        1.913369   -1.072000    0.000000
      2          6           0        1.173015    0.271187    0.000000
      3          6           0       -0.377824    0.218613    0.000000
      4          6           0       -0.901665    1.668381    0.000000
      5          6           0       -0.901665   -0.499721    1.258806
      6          6           0       -0.901665   -0.499721   -1.258806
      7          1           0       -1.998415    1.692712    0.000000
      8          1           0        2.997212   -0.908187    0.000000
      9          1           0       -0.527741   -0.020462    2.172474
     10          1           0       -0.527741   -0.020462   -2.172474
     11          1           0       -0.599282   -1.552675    1.284511
     12          1           0       -0.599282   -1.552675   -1.284511
     13          1           0       -1.997813   -0.472580    1.293782
     14          1           0       -1.997813   -0.472580   -1.293782
     15          1           0        1.675582   -1.672901    0.884898
     16          1           0        1.675582   -1.672901   -0.884898
     17          1           0        1.494436    0.850788    0.877554
     18          1           0        1.494436    0.850788   -0.877554
     19          1           0       -0.555280    2.215348    0.885901
     20          1           0       -0.555280    2.215348   -0.885901
 ---------------------------------------------------------------------

 SCF Done:  E(RB3LYP) =  -237.083690318     A.U. after    1 cycles

 The electronic state is 1-A'.
 Alpha  occ. eigenvalues --  -10.19074 -10.17435 -10.16949 -10.16704 -10.16703
 Alpha  occ. eigenvalues --  -10.16692  -0.81603  -0.73039  -0.67747  -0.67731
 Alpha  occ. eigenvalues --   -0.61747  -0.52183  -0.45193  -0.45095  -0.43038
 Alpha  occ. eigenvalues --   -0.41746  -0.39347  -0.37694  -0.37169  -0.35833
 Alpha  occ. eigenvalues --   -0.35239  -0.33903  -0.31107  -0.30921  -0.30317
 Alpha virt. eigenvalues --    0.07666   0.12426   0.13486   0.13726   0.14284
 Alpha virt. eigenvalues --    0.14613   0.16122   0.17678   0.17802   0.19652
 Alpha virt. eigenvalues --    0.20518   0.20868   0.22601   0.22714   0.24407

 Mulliken atomic charges:
              1
     1  C   -0.453816
     2  C   -0.240607
     3  C    0.107133
     4  C   -0.440524
     5  C   -0.444619
     6  C   -0.444619
     7  H    0.135826
     8  H    0.141533
     9  H    0.135854
    10  H    0.135854
    11  H    0.141119
    12  H    0.141119
    13  H    0.136714
    14  H    0.136714
    15  H    0.145103
    16  H    0.145103
    17  H    0.124736
    18  H    0.124736
    19  H    0.136323
    20  H    0.136323
 Sum of Mulliken atomic charges =   0.00000

 Dipole moment (field-independent basis, Debye):
    X=              0.0406    Y=             -0.0046    Z=              0.0000  Tot=              0.0409
 Quadrupole moment (field-independent basis, Debye-Ang):
   XX=            -41.5231   YY=            -41.9349   ZZ=            -41.5877
   XY=              0.1858   XZ=              0.0000   YZ=              0.0000

  Exact polarizability:  67.244  -2.657  63.463   0.000   0.000  62.210
 Approx polarizability:  87.268   0.003  85.222   0.000   0.000  86.107

                     1                      2                      3
                    A"                     A"                     A'
 Frequencies --    92.1843               207.0460               252.9527
 Red. masses --     1.6449                 1.0243                 1.6130
 Frc consts  --     0.0082                 0.0259                 0.0608
 IR Inten    --     0.0047                 0.0080                 0.0488

                     4                      5                      6
                    A"                     A'                     A"
 Frequencies --   254.8818               264.7527               285.4984
 Red. masses --     1.1125                 1.3503                 1.1275
 Frc consts  --     0.0426                 0.0558                 0.0541
 IR Inten    --     0.0001                 0.0384                 0.0005

                     7                      8                      9
                    A"                     A'                     A'
 Frequencies --   334.8484               353.8398               405.7190
 Red. masses --     2.0637                 2.2588                 2.2385
 Frc consts  --     0.1363                 0.1666                 0.2171
 IR Inten    --     0.0108                 0.0180                 0.0295

                    10                     11                     12
                    A"                     A'                     A'
 Frequencies --   419.6826               484.3634               710.6314
 Red. masses --     1.9978                 2.4346                 3.1068
 Frc consts  --     0.2073                 0.3365                 0.9244
 IR Inten    --     0.0211                 0.3584                 0.2872

                    13                     14                     15
                    A"                     A'                     A'
 Frequencies --   795.9946               878.3725               939.2641
 Red. masses --     1.1910                 2.0354                 1.7480
 Frc consts  --     0.4446                 0.9253                 0.9086
 IR Inten    --     2.4039                 0.1734                 0.8134

                    16                     17                     18
                    A"                     A"                     A"
 Frequencies --   941.5635               968.6412              1011.5319
 Red. masses --     1.7938                 1.2023                 1.2731
 Frc consts  --     0.9370                 0.6646                 0.7675
 IR Inten    --     0.1213                 0.0096                 0.6376

                    19                     20                     21
                    A'                     A'                     A'
 Frequencies --  1022.0489              1034.5103              1106.2841
 Red. masses --     1.2970                 2.3193                 1.6633
 Frc consts  --     0.7982                 1.4624                 1.1993
 IR Inten    --     2.8080                 1.5534                 2.3056

                    22                     23                     24
                    A"                     A'                     A"
 Frequencies --  1117.6805              1251.9503              1261.1942
 Red. masses --     1.4113                 2.4229                 2.0355
 Frc consts  --     1.0387                 2.2375                 1.9076
 IR Inten    --     0.3705                 8.1977                 1.9778

                    25                     26                     27
                    A'                     A"                     A'
 Frequencies --  1288.2829              1352.8248              1391.8280
 Red. masses --     2.7183                 1.3215                 1.4444
 Frc consts  --     2.6581                 1.4250                 1.6485
 IR Inten    --     4.4176                 0.8658                 0.5180

                    28                     29                     30
                    A'                     A"                     A'
 Frequencies --  1425.5047              1427.4390              1445.8065
 Red. masses --     1.2509                 1.2492                 1.2450
 Frc consts  --     1.4977                 1.4997                 1.5333
 IR Inten    --     3.8185                 5.6277                 4.6990

                    31                     32                     33
                    A'                     A'                     A"
 Frequencies --  1458.6904              1509.0025              1511.5073
 Red. masses --     1.2229                 1.0665                 1.0489
 Frc consts  --     1.5331                 1.4309                 1.4119
 IR Inten    --     2.8302                 0.1369                 0.0543

                    34                     35                     36
                    A"                     A'                     A"
 Frequencies --  1515.5512              1519.5152              1533.6646
 Red. masses --     1.0445                 1.0507                 1.0463
 Frc consts  --     1.4135                 1.4294                 1.4500
 IR Inten    --     0.0995                 0.1055                 8.8117

                    37                     38                     39
                    A'                     A'                     A"
 Frequencies --  1538.1284              1540.5082              1544.2135
 Red. masses --     1.0713                 1.0482                 1.0526
 Frc consts  --     1.4934                 1.4656                 1.4789
 IR Inten    --     3.9305                 5.0879                 0.0872

                    40                     41                     42
                    A'                     A'                     A'
 Frequencies --  1547.7605              3018.8198              3033.0257
 Red. masses --     1.0590                 1.0589                 1.0348
 Frc consts  --     1.4947                 5.6855                 5.6088
 IR Inten    --    10.0609                31.4382                32.3254

                    43                     44                     45
                    A"                     A'                     A"
 Frequencies --  3036.0956              3044.2058              3050.4822
 Red. masses --     1.0354                 1.0371                 1.1030
 Frc consts  --     5.6232                 5.6625                 6.0472
 IR Inten    --    35.6242                16.7470                21.5347

                    46                     47                     48
                    A'                     A"                     A'
 Frequencies --  3052.1879              3097.4410              3097.6584
 Red. masses --     1.0366                 1.1026                 1.1024
 Frc consts  --     5.6894                 6.2327                 6.2327
 IR Inten    --    16.5715                 0.1175                 1.4352

                    49                     50                     51
                    A"                     A'                     A"
 Frequencies --  3101.5024              3105.6504              3108.0424
 Red. masses --     1.1023                 1.1014                 1.1015
 Frc consts  --     6.2473                 6.2588                 6.2693
 IR Inten    --    29.5443                59.9621                41.0099

                    52                     53                     54
                    A'                     A'                     A"
 Frequencies --  3109.4213              3116.7223              3121.3395
 Red. masses --     1.1014                 1.0997                 1.1018
 Frc consts  --     6.2743                 6.2939                 6.3246
 IR Inten    --    77.2691                61.9766                36.5264

 - Thermochemistry -
 -------------------
 Temperature   298.150 Kelvin.  Pressure   1.00000 Atm.
 Atom     1 has atomic number  6 and mass  12.00000

 Molecular mass:    86.10955 amu.
 Principal axes and moments of inertia in atomic units:
                           1         2         3
     Eigenvalues --   423.54937 730.57044 733.05144
           X            0.86927   0.49434   0.00000
           Y           -0.49434   0.86927   0.00000
           Z            0.00000   0.00000   1.00000
 This molecule is an asymmetric top.
 Rotational symmetry number  1.
 Rotational temperatures (Kelvin)      0.20450     0.11856     0.11816
 Rotational constants (GHZ):           4.26099     2.47032     2.46196
 Zero-point vibrational energy     496679.1 (Joules/Mol)
                                  118.70915 (Kcal/Mol)
 Warning -- explicit consideration of  11 degrees of freedom as
           vibrations may cause significant error
 Vibrational temperatures:    132.63   297.89   363.94   366.72   380.92
          (Kelvin)            410.77   481.77   509.10   583.74   603.83
                              696.89  1022.44  1145.26  1263.78  1351.39
                             1354.70  1393.66  1455.37  1470.50  1488.43
                             1591.69  1608.09  1801.28  1814.57  1853.55
                             1946.41  2002.53  2050.98  2053.76  2080.19
                             2098.73  2171.12  2174.72  2180.54  2186.24
                             2206.60  2213.02  2216.44  2221.78  2226.88
                             4343.40  4363.84  4368.26  4379.93  4388.96
                             4391.41  4456.52  4456.83  4462.36  4468.33
                             4471.77  4473.76  4484.26  4490.91

 Zero-point correction=                           0.189175 (Hartree/Particle)
 Thermal correction to Energy=                    0.197389
 Thermal correction to Enthalpy=                  0.198333
 Thermal correction to Gibbs Free Energy=         0.157949
 Sum of electronic and zero-point Energies=           -236.894515
 Sum of electronic and thermal Energies=              -236.886301
 Sum of electronic and thermal Enthalpies=            -236.885357
 Sum of electronic and thermal Free Energies=         -236.925741

                     E (Thermal)             CV                S
                      KCal/Mol        Cal/Mol-Kelvin    Cal/Mol-Kelvin
 Total                  123.864             30.654             84.996
 Electronic               0.000              0.000              0.000
 Translational            0.889              2.981             39.272
 Rotational               0.889              2.981             26.920
 Vibrational            122.086             24.692             18.804
 Vibration     1          0.602              1.955              3.613
 Vibration     2          0.641              1.830              2.070
 Vibration     3          0.664              1.758              1.710
 Vibration     4          0.665              1.755              1.697
 Vibration     5          0.671              1.738              1.630
 Vibration     6          0.683              1.701              1.501
 Vibration     7          0.716              1.606              1.237
 Vibration     8          0.730              1.567              1.149
 Vibration     9          0.771              1.458              0.942
 Vibration    10          0.782              1.427              0.893
 Vibration    11          0.840              1.285              0.698

 Optimization completed.
    -- Stationary point found.
 Normal termination of Gaussian 09 at Tue Jan 23 15:09:16 2018.
