 Gaussian 09, Revision B.01,
 Gaussian 09:  EM64L-G09RevB.01 12-Aug-2010

 ----------------------------
 #B3LYP/6-31G* fopt test freq
 ----------------------------

 -----------------------------------
 IsomerC6H14/2,3-dimethyl-butane.xyz
 -----------------------------------
 Symbolic Z-matrix:
 Charge =  0 Multiplicity = 1

 SCF Done:  E(RB3LYP) =  -237.081881933     A.U. after   12 cycles
 SCF Done:  E(RB3LYP) =  -237.082461777     A.U. after    9 cycles
 SCF Done:  E(RB3LYP) =  -237.082484760     A.U. after    8 cycles
 SCF Done:  E(RB3LYP) =  -237.082490952     A.U. after    7 cycles
 Optimization completed.
    -- Stationary point found.
 Normal termination of Gaussian 09 at Tue Jan 23 15:09:27 2018.

 ----------------------------------------------------------------------
 #N Geom=AllCheck Guess=TCheck SCRF=Check Test GenChk RB3LYP/6-31G(d) F
 req
 ----------------------------------------------------------------------

 IsomerC6H14/2,3-dimethyl-butane.xyz
 -----------------------------------
 Redundant internal coordinates taken from checkpoint file:
 /home/g09scr/Gau-26231.chk
 Charge =  0 Multiplicity = 1

                         Standard orientation:
 ---------------------------------------------------------------------
 Center     Atomic      Atomic             Coordinates (Angstroms)
 Number     Number       Type             X           Y           Z
 ---------------------------------------------------------------------
      1          6           0       -0.232269    0.741196    0.000000
      2          6           0        0.232269   -0.741196    0.000000
      3          1           0       -1.334561    0.736113    0.000000
      4          1           0        1.334561   -0.736113    0.000000
      5          6           0        0.232269    1.500816    1.254491
      6          6           0        0.232269    1.500816   -1.254491
      7          6           0       -0.232269   -1.500816    1.254491
      8          6           0       -0.232269   -1.500816   -1.254491
      9          1           0        1.326982    1.481523    1.341999
     10          1           0        1.326982    1.481523   -1.341999
     11          1           0       -1.326982   -1.481523    1.341999
     12          1           0       -1.326982   -1.481523   -1.341999
     13          1           0       -0.074482    2.552192    1.204402
     14          1           0       -0.184408    1.082304    2.175581
     15          1           0       -0.074482    2.552192   -1.204402
     16          1           0       -0.184408    1.082304   -2.175581
     17          1           0        0.074482   -2.552192    1.204402
     18          1           0        0.184408   -1.082304    2.175581
     19          1           0        0.074482   -2.552192   -1.204402
     20          1           0        0.184408   -1.082304   -2.175581
 ---------------------------------------------------------------------

 SCF Done:  E(RB3LYP) =  -237.082490952     A.U. after    1 cycles

 The electronic state is 1-AG.
 Alpha  occ. eigenvalues --  -10.18291 -10.18272 -10.16766 -10.16766 -10.16765
 Alpha  occ. eigenvalues --  -10.16765  -0.81124  -0.74163  -0.68616  -0.66280
 Alpha  occ. eigenvalues --   -0.60285  -0.54324  -0.45145  -0.44966  -0.42547
 Alpha  occ. eigenvalues --   -0.41628  -0.38760  -0.38356  -0.37336  -0.35835
 Alpha  occ. eigenvalues --   -0.35054  -0.33589  -0.31396  -0.30732  -0.30200
 Alpha virt. eigenvalues --    0.08374   0.11735   0.12937   0.13414   0.14207
 Alpha virt. eigenvalues --    0.16118   0.16427   0.17880   0.17987   0.18730
 Alpha virt. eigenvalues --    0.18881   0.20573   0.20644   0.23764   0.23796

 Mulliken atomic charges:
              1
     1  C   -0.054899
     2  C   -0.054899
     3  H    0.114639
     4  H    0.114639
     5  C   -0.450157
     6  C   -0.450157
     7  C   -0.450157
     8  C   -0.450157
     9  H    0.137176
    10  H    0.137176
    11  H    0.137176
    12  H    0.137176
    13  H    0.138190
    14  H    0.144922
    15  H    0.138190
    16  H    0.144922
    17  H    0.138190
    18  H    0.144922
    19  H    0.138190
    20  H    0.144922
 Sum of Mulliken atomic charges =   0.00000

 Dipole moment (field-independent basis, Debye):
    X=              0.0000    Y=              0.0000    Z=              0.0000  Tot=              0.0000
 Quadrupole moment (field-independent basis, Debye-Ang):
   XX=            -41.2366   YY=            -41.7766   ZZ=            -42.0276
   XY=             -0.3323   XZ=              0.0000   YZ=              0.0000

  Exact polarizability:  57.790   1.218  70.007   0.000   0.000  65.793
 Approx polarizability:  86.471  -0.374  87.168   0.000   0.000  84.368

                     1                      2                      3
                    AU                     AU                     BG
 Frequencies --    58.6018               198.9476               199.3163
 Red. masses --     2.2804                 1.4132                 1.0277
 Frc consts  --     0.0046                 0.0330                 0.0241
 IR Inten    --     0.0003                 0.0270                 0.0000

                     4                      5                      6
                    BU                     AG                     AU
 Frequencies --   217.3229               237.6352               303.3572
 Red. masses --     1.0569                 1.1905                 1.6217
 Frc consts  --     0.0294                 0.0396                 0.0879
 IR Inten    --     0.0404                 0.0000                 0.0061

                     7                      8                      9
                    BU                     AG                     BU
 Frequencies --   352.0938               386.5868               410.9336
 Red. masses --     2.0254                 1.9440                 2.0067
 Frc consts  --     0.1479                 0.1712                 0.1997
 IR Inten    --     0.1482                 0.0000                 0.0659

                    10                     11                     12
                    BG                     AG                     AG
 Frequencies --   424.8716               499.8194               760.3387
 Red. masses --     2.7935                 2.2588                 2.1347
 Frc consts  --     0.2971                 0.3325                 0.7271
 IR Inten    --     0.0000                 0.0000                 0.0000

                    13                     14                     15
                    BU                     BG                     AU
 Frequencies --   875.4540               932.6960               939.6688
 Red. masses --     2.5230                 1.1588                 1.1746
 Frc consts  --     1.1393                 0.5939                 0.6111
 IR Inten    --     1.9727                 0.0000                 1.9825

                    16                     17                     18
                    AG                     BG                     AU
 Frequencies --   953.7147               970.1020               981.7457
 Red. masses --     1.9628                 1.5079                 1.4032
 Frc consts  --     1.0519                 0.8361                 0.7968
 IR Inten    --     0.0000                 0.0000                 0.2900

                    19                     20                     21
                    BU                     AU                     BG
 Frequencies --  1012.0439              1088.3498              1182.6961
 Red. masses --     1.1765                 2.4335                 2.0146
 Frc consts  --     0.7099                 1.6983                 1.6603
 IR Inten    --     5.6212                 2.1082                 0.0000

                    22                     23                     24
                    BU                     AG                     AG
 Frequencies --  1189.8377              1205.2093              1224.6757
 Red. masses --     1.8702                 1.6421                 2.0474
 Frc consts  --     1.5600                 1.4053                 1.8092
 IR Inten    --     8.4967                 0.0000                 0.0000

                    25                     26                     27
                    BU                     AU                     BG
 Frequencies --  1324.1896              1356.5026              1370.6039
 Red. masses --     1.3856                 1.2817                 1.4235
 Frc consts  --     1.4314                 1.3896                 1.5756
 IR Inten    --     8.6911                 5.5563                 0.0000

                    28                     29                     30
                    AG                     BG                     AU
 Frequencies --  1394.7878              1426.1202              1431.6711
 Red. masses --     1.4529                 1.2886                 1.2300
 Frc consts  --     1.6653                 1.5441                 1.4854
 IR Inten    --     0.0000                 0.0000                 5.5926

                    31                     32                     33
                    BU                     AG                     AU
 Frequencies --  1445.4327              1452.3196              1514.5605
 Red. masses --     1.2383                 1.2118                 1.0507
 Frc consts  --     1.5243                 1.5059                 1.4201
 IR Inten    --     9.3871                 0.0000                 0.8300

                    34                     35                     36
                    BG                     BG                     BU
 Frequencies --  1516.3485              1522.2322              1532.6690
 Red. masses --     1.0436                 1.0497                 1.0424
 Frc consts  --     1.4138                 1.4331                 1.4428
 IR Inten    --     0.0000                 0.0000                12.8151

                    37                     38                     39
                    AG                     AU                     BU
 Frequencies --  1534.9749              1535.2343              1539.4814
 Red. masses --     1.0683                 1.0419                 1.0455
 Frc consts  --     1.4830                 1.4469                 1.4599
 IR Inten    --     0.0000                 4.2866                15.2930

                    40                     41                     42
                    AG                     AG                     BU
 Frequencies --  1554.4684              2988.9423              3002.6734
 Red. masses --     1.0487                 1.0804                 1.0850
 Frc consts  --     1.4930                 5.6868                 5.7638
 IR Inten    --     0.0000                 0.0000                39.2896

                    43                     44                     45
                    BG                     AU                     BU
 Frequencies --  3036.6733              3038.1102              3041.3960
 Red. masses --     1.0379                 1.0398                 1.0383
 Frc consts  --     5.6389                 5.6549                 5.6588
 IR Inten    --     0.0000                42.3870                67.7785

                    46                     47                     48
                    AG                     AU                     BG
 Frequencies --  3044.3527              3097.4301              3097.4964
 Red. masses --     1.0408                 1.1000                 1.1002
 Frc consts  --     5.6835                 6.2180                 6.2191
 IR Inten    --     0.0000                 1.4830                 0.0000

                    49                     50                     51
                    AG                     BU                     BG
 Frequencies --  3103.6748              3104.9815              3114.8532
 Red. masses --     1.0992                 1.0992                 1.1022
 Frc consts  --     6.2387                 6.2437                 6.3007
 IR Inten    --     0.0000               152.7172                 0.0000

                    52                     53                     54
                    BU                     AU                     AG
 Frequencies --  3117.9461              3129.7868              3130.0154
 Red. masses --     1.1015                 1.0986                 1.0985
 Frc consts  --     6.3093                 6.3405                 6.3408
 IR Inten    --    86.9360                66.2271                 0.0000

 - Thermochemistry -
 -------------------
 Temperature   298.150 Kelvin.  Pressure   1.00000 Atm.
 Atom     1 has atomic number  6 and mass  12.00000

 Molecular mass:    86.10955 amu.
 Principal axes and moments of inertia in atomic units:
                           1         2         3
     Eigenvalues --   430.42931 631.92194 970.90391
           X            0.11288   0.00000   0.99361
           Y            0.99361   0.00000  -0.11288
           Z            0.00000   1.00000   0.00000
 This molecule is an asymmetric top.
 Rotational symmetry number  2.
 Rotational temperatures (Kelvin)      0.20123     0.13706     0.08921
 Rotational constants (GHZ):           4.19289     2.85596     1.85883
 Zero-point vibrational energy     497083.9 (Joules/Mol)
                                  118.80592 (Kcal/Mol)
 Warning -- explicit consideration of  11 degrees of freedom as
           vibrations may cause significant error
 Vibrational temperatures:     84.31   286.24   286.77   312.68   341.90
          (Kelvin)            436.46   506.58   556.21   591.24   611.29
                              719.13  1093.96  1259.58  1341.94  1351.97
                             1372.18  1395.76  1412.51  1456.10  1565.89
                             1701.63  1711.91  1734.03  1762.03  1905.21
                             1951.70  1971.99  2006.79  2051.87  2059.85
                             2079.65  2089.56  2179.11  2181.68  2190.15
                             2205.17  2208.48  2208.86  2214.97  2236.53
                             4300.42  4320.17  4369.09  4371.16  4375.88
                             4380.14  4456.51  4456.60  4465.49  4467.37
                             4481.57  4486.02  4503.06  4503.39

 Zero-point correction=                           0.189329 (Hartree/Particle)
 Thermal correction to Energy=                    0.197640
 Thermal correction to Enthalpy=                  0.198584
 Thermal correction to Gibbs Free Energy=         0.158158
 Sum of electronic and zero-point Energies=           -236.893162
 Sum of electronic and thermal Energies=              -236.884851
 Sum of electronic and thermal Enthalpies=            -236.883907
 Sum of electronic and thermal Free Energies=         -236.924333

                     E (Thermal)             CV                S
                      KCal/Mol        Cal/Mol-Kelvin    Cal/Mol-Kelvin
 Total                  124.021             30.330             85.084
 Electronic               0.000              0.000              0.000
 Translational            0.889              2.981             39.272
 Rotational               0.889              2.981             25.693
 Vibrational            122.243             24.369             20.119
 Vibration     1          0.596              1.974              4.504
 Vibration     2          0.637              1.841              2.143
 Vibration     3          0.637              1.841              2.139
 Vibration     4          0.646              1.815              1.981
 Vibration     5          0.656              1.783              1.821
 Vibration     6          0.695              1.667              1.398
 Vibration     7          0.729              1.571              1.157
 Vibration     8          0.755              1.499              1.013
 Vibration     9          0.775              1.446              0.923
 Vibration    10          0.787              1.416              0.876
 Vibration    11          0.855              1.250              0.659

 Optimization completed.
    -- Stationary point found.
 Normal termination of Gaussian 09 at Tue Jan 23 15:09:48 2018.
