 Gaussian 09, Revision B.01,
 Gaussian 09:  EM64L-G09RevB.01 12-Aug-2010

 ------------------------------
 #B3LYP/6-311G** fopt test freq
 ------------------------------

 ----------------
 TestTesis/test-S
 ----------------
 Symbolic Z-matrix:
 Charge =  0 Multiplicity = 1

 SCF Done:  E(RB3LYP) =  -386.182965177     A.U. after   13 cycles
 SCF Done:  E(RB3LYP) =  -386.193639686     A.U. after   14 cycles
 SCF Done:  E(RB3LYP) =  -386.194067757     A.U. after   11 cycles
 SCF Done:  E(RB3LYP) =  -386.194380829     A.U. after   12 cycles
 SCF Done:  E(RB3LYP) =  -386.194930745     A.U. after   14 cycles
 SCF Done:  E(RB3LYP) =  -386.195215533     A.U. after   10 cycles
 SCF Done:  E(RB3LYP) =  -386.195412698     A.U. after   10 cycles
 SCF Done:  E(RB3LYP) =  -386.195500356     A.U. after   12 cycles
 SCF Done:  E(RB3LYP) =  -386.195521713     A.U. after   10 cycles
 SCF Done:  E(RB3LYP) =  -386.195536221     A.U. after   10 cycles
 SCF Done:  E(RB3LYP) =  -386.195546730     A.U. after   10 cycles
 SCF Done:  E(RB3LYP) =  -386.195553058     A.U. after    9 cycles
 SCF Done:  E(RB3LYP) =  -386.195553756     A.U. after    7 cycles
 SCF Done:  E(RB3LYP) =  -386.195553794     A.U. after    7 cycles
 Optimization completed.
    -- Stationary point found.
 Normal termination of Gaussian 09 at Thu Jul 12 15:40:42 2018.

 ----------------------------------------------------------------------
 #N Geom=AllCheck Guess=TCheck SCRF=Check Test GenChk RB3LYP/6-311G(d,p
 ) Freq
 ----------------------------------------------------------------------

 TestTesis/test-S
 ----------------
 Redundant internal coordinates taken from checkpoint file:
 /home/g09scr/Gau-7586.chk
 Charge =  0 Multiplicity = 1

                         Standard orientation:
 ---------------------------------------------------------------------
 Center     Atomic      Atomic             Coordinates (Angstroms)
 Number     Number       Type             X           Y           Z
 ---------------------------------------------------------------------
      1          6           0        1.649333   -0.224261   -0.332956
      2          1           0        1.846896   -0.877258   -1.196038
      3          8           0        2.198329    1.070891   -0.581810
      4          1           0        3.156477    0.989694   -0.571694
      5          6           0        2.285872   -0.852006    0.913953
      6          1           0        2.109837   -0.214019    1.783386
      7          1           0        1.866407   -1.840129    1.117530
      8          1           0        3.367193   -0.967641    0.778472
      9          6           0        0.145580   -0.084999   -0.188255
     10          6           0       -0.438780    1.133650    0.161796
     11          6           0       -1.819399    1.231195    0.326873
     12          6           0       -2.631636    0.114698    0.144529
     13          6           0       -2.055221   -1.103709   -0.210732
     14          6           0       -0.676678   -1.199633   -0.378532
     15          1           0        0.195275    2.001261    0.288752
     16          1           0       -2.261126    2.184846    0.594843
     17          1           0       -3.705618    0.193231    0.271296
     18          1           0       -2.679582   -1.976984   -0.364573
     19          1           0       -0.236812   -2.149729   -0.667551
 ---------------------------------------------------------------------

 SCF Done:  E(RB3LYP) =  -386.195553794     A.U. after    1 cycles

 The electronic state is 1-A.
 Alpha  occ. eigenvalues --  -19.11693 -10.23022 -10.17733 -10.17111 -10.17052
 Alpha  occ. eigenvalues --  -10.16910 -10.16848 -10.16792 -10.16470  -1.02678
 Alpha  occ. eigenvalues --   -0.85591  -0.77958  -0.74366  -0.72567  -0.64192
 Alpha  occ. eigenvalues --   -0.60642  -0.57709  -0.51590  -0.50932  -0.46295
 Alpha  occ. eigenvalues --   -0.44855  -0.44000  -0.43435  -0.41853  -0.39541
 Alpha  occ. eigenvalues --   -0.38619  -0.35984  -0.35543  -0.34060  -0.32750
 Alpha  occ. eigenvalues --   -0.28217  -0.25163  -0.24405
 Alpha virt. eigenvalues --   -0.00812  -0.00448   0.03082   0.05362   0.06956
 Alpha virt. eigenvalues --    0.08235   0.09362   0.10032   0.11331   0.12245
 Alpha virt. eigenvalues --    0.13918   0.14656   0.15497   0.19889   0.21056

 Mulliken atomic charges:
              1
     1  C    0.087219
     2  H    0.109449
     3  O   -0.400401
     4  H    0.236725
     5  C   -0.273712
     6  H    0.116808
     7  H    0.107005
     8  H    0.093342
     9  C   -0.147047
    10  C   -0.043168
    11  C   -0.095876
    12  C   -0.089166
    13  C   -0.092459
    14  C   -0.064001
    15  H    0.100173
    16  H    0.092965
    17  H    0.091368
    18  H    0.090908
    19  H    0.079866
 Sum of Mulliken atomic charges =   0.00000

 Dipole moment (field-independent basis, Debye):
    X=              1.2132    Y=             -1.1486    Z=              0.2989  Tot=              1.6972
 Quadrupole moment (field-independent basis, Debye-Ang):
   XX=            -44.3141   YY=            -52.4652   ZZ=            -57.7132
   XY=             -1.1743   XZ=             -0.8411   YZ=              2.4902

  Exact polarizability: 117.094  -1.500  93.142  -2.356   7.967  54.656
 Approx polarizability: 168.186   0.434 156.088  -7.475  17.296  82.328

                     1                      2                      3
                     A                      A                      A
 Frequencies --    38.2428               133.4622               218.2123
 Red. masses --     3.6387                 3.4099                 2.2821
 Frc consts  --     0.0031                 0.0358                 0.0640
 IR Inten    --     1.6258                 3.6436                 2.4482

                     4                      5                      6
                     A                      A                      A
 Frequencies --   266.1614               272.8563               308.5582
 Red. masses --     1.1047                 1.3162                 3.0518
 Frc consts  --     0.0461                 0.0577                 0.1712
 IR Inten    --    55.7543                54.9925                 1.0260

                     7                      8                      9
                     A                      A                      A
 Frequencies --   381.0782               415.3920               477.7238
 Red. masses --     4.2719                 2.9412                 3.3104
 Frc consts  --     0.3655                 0.2990                 0.4451
 IR Inten    --     6.4306                 0.3045                 1.9141

                    10                     11                     12
                     A                      A                      A
 Frequencies --   536.8065               610.0693               635.6739
 Red. masses --     3.2706                 3.4594                 6.3902
 Frc consts  --     0.5553                 0.7586                 1.5214
 IR Inten    --    11.2915                15.2670                 0.1327

                    13                     14                     15
                     A                      A                      A
 Frequencies --   715.9918               763.9541               777.3549
 Red. masses --     1.7602                 2.6659                 2.1461
 Frc consts  --     0.5316                 0.9167                 0.7641
 IR Inten    --    41.0539                20.1409                12.3868

                    16                     17                     18
                     A                      A                      A
 Frequencies --   860.9815               904.7901               930.1171
 Red. masses --     1.2495                 2.3260                 1.3709
 Frc consts  --     0.5457                 1.1219                 0.6988
 IR Inten    --     0.1070                16.9548                 3.4527

                    19                     20                     21
                     A                      A                      A
 Frequencies --   983.0188              1003.8001              1016.7361
 Red. masses --     1.3503                 1.2846                 3.8098
 Frc consts  --     0.7688                 0.7626                 2.3204
 IR Inten    --     0.1333                 0.4363                 1.7601

                    22                     23                     24
                     A                      A                      A
 Frequencies --  1020.7263              1050.5051              1089.5225
 Red. masses --     2.2751                 2.1890                 1.7899
 Frc consts  --     1.3966                 1.4233                 1.2518
 IR Inten    --     6.3333                 5.9311                35.9336

                    25                     26                     27
                     A                      A                      A
 Frequencies --  1091.9200              1131.3954              1180.6948
 Red. masses --     2.3055                 2.0671                 1.1212
 Frc consts  --     1.6196                 1.5590                 0.9209
 IR Inten    --     8.4128                28.2794                 0.8788

                    28                     29                     30
                     A                      A                      A
 Frequencies --  1191.4185              1204.4717              1245.3819
 Red. masses --     1.4865                 1.4005                 1.3402
 Frc consts  --     1.2432                 1.1971                 1.2247
 IR Inten    --    44.9827                22.8544                11.1459

                    31                     32                     33
                     A                      A                      A
 Frequencies --  1338.4791              1353.4694              1357.7135
 Red. masses --     3.3513                 1.3869                 1.3447
 Frc consts  --     3.5375                 1.4969                 1.4604
 IR Inten    --     2.8567                 0.9791                23.4027

                    34                     35                     36
                     A                      A                      A
 Frequencies --  1403.9991              1419.9478              1482.2506
 Red. masses --     1.2556                 1.4656                 1.9573
 Frc consts  --     1.4582                 1.7410                 2.5336
 IR Inten    --    12.2804                13.1898                15.9890

                    37                     38                     39
                     A                      A                      A
 Frequencies --  1490.5493              1495.8794              1529.1911
 Red. masses --     1.0680                 1.1389                 2.2355
 Frc consts  --     1.3981                 1.5015                 3.0799
 IR Inten    --     4.2696                 1.8635                11.6770

                    40                     41                     42
                     A                      A                      A
 Frequencies --  1627.6634              1649.0265              2966.9450
 Red. masses --     5.6733                 5.6059                 1.0834
 Frc consts  --     8.8555                 8.9815                 5.6191
 IR Inten    --     0.7169                 3.5371                46.1215

                    43                     44                     45
                     A                      A                      A
 Frequencies --  3016.3941              3083.3391              3108.3279
 Red. masses --     1.0392                 1.0963                 1.1028
 Frc consts  --     5.5707                 6.1406                 6.2779
 IR Inten    --    36.8206                36.6904                19.0898

                    46                     47                     48
                     A                      A                      A
 Frequencies --  3148.1445              3161.2120              3172.2100
 Red. masses --     1.0870                 1.0867                 1.0918
 Frc consts  --     6.3474                 6.3986                 6.4734
 IR Inten    --    10.5665                 1.0804                29.4260

                    49                     50                     51
                     A                      A                      A
 Frequencies --  3185.3064              3207.2074              3839.9952
 Red. masses --     1.0968                 1.0922                 1.0664
 Frc consts  --     6.5569                 6.6193                 9.2649
 IR Inten    --    24.2251                 3.8583                23.6196

 - Thermochemistry -
 -------------------
 Temperature   298.150 Kelvin.  Pressure   1.00000 Atm.
 Atom     1 has atomic number  6 and mass  12.00000

 Molecular mass:   122.07317 amu.
 Principal axes and moments of inertia in atomic units:
                           1         2         3
     Eigenvalues --   521.651251580.589801894.00473
           X            0.99981  -0.01745   0.00846
           Y            0.01733   0.99974   0.01454
           Z           -0.00871  -0.01439   0.99986
 This molecule is an asymmetric top.
 Rotational symmetry number  1.
 Warning -- assumption of classical behavior for rotation
           may cause significant error
 Rotational temperatures (Kelvin)      0.16604     0.05480     0.04573
 Rotational constants (GHZ):           3.45967     1.14182     0.95287
 Zero-point vibrational energy     421649.4 (Joules/Mol)
                                  100.77662 (Kcal/Mol)
 Warning -- explicit consideration of  11 degrees of freedom as
           vibrations may cause significant error
 Vibrational temperatures:     55.02   192.02   313.96   382.95   392.58
          (Kelvin)            443.95   548.29   597.66   687.34   772.34
                              877.75   914.59  1030.15  1099.16  1118.44
                             1238.76  1301.79  1338.23  1414.34  1444.24
                             1462.85  1468.60  1511.44  1567.58  1571.03
                             1627.82  1698.75  1714.18  1732.96  1791.82
                             1925.77  1947.34  1953.44  2020.04  2042.99
                             2132.63  2144.57  2152.23  2200.16  2341.84
                             2372.58  4268.77  4339.91  4436.23  4472.18
                             4529.47  4548.27  4564.10  4582.94  4614.45
                             5524.89

 Zero-point correction=                           0.160598 (Hartree/Particle)
 Thermal correction to Energy=                    0.169008
 Thermal correction to Enthalpy=                  0.169952
 Thermal correction to Gibbs Free Energy=         0.127134
 Sum of electronic and zero-point Energies=           -386.034956
 Sum of electronic and thermal Energies=              -386.026546
 Sum of electronic and thermal Enthalpies=            -386.025601
 Sum of electronic and thermal Free Energies=         -386.068420

                     E (Thermal)             CV                S
                      KCal/Mol        Cal/Mol-Kelvin    Cal/Mol-Kelvin
 Total                  106.054             32.304             90.118
 Electronic               0.000              0.000              0.000
 Translational            0.889              2.981             40.313
 Rotational               0.889              2.981             28.836
 Vibrational            104.277             26.342             20.969
 Vibration     1          0.594              1.982              5.348
 Vibration     2          0.613              1.920              2.896
 Vibration     3          0.646              1.813              1.974
 Vibration     4          0.672              1.735              1.621
 Vibration     5          0.676              1.723              1.578
 Vibration     6          0.698              1.657              1.370
 Vibration     7          0.751              1.511              1.035
 Vibration     8          0.779              1.437              0.908
 Vibration     9          0.834              1.299              0.716
 Vibration    10          0.892              1.169              0.572
 Vibration    11          0.969              1.011              0.433

 Optimization completed.
    -- Stationary point found.
 Normal termination of Gaussian 09 at Thu Jul 12 15:43:54 2018.
