 Gaussian 09, Revision B.01,
 Gaussian 09:  EM64L-G09RevB.01 12-Aug-2010

 ----------------------------
 #B3LYP/6-31G* fopt test freq
 ----------------------------

 --------------------------------
 IsomerC6H14/2-methyl-pentane.xyz
 --------------------------------
 Symbolic Z-matrix:
 Charge =  0 Multiplicity = 1

 SCF Done:  E(RB3LYP) =  -237.084169460     A.U. after   12 cycles
 SCF Done:  E(RB3LYP) =  -237.084724712     A.U. after   10 cycles
 SCF Done:  E(RB3LYP) =  -237.084752198     A.U. after    9 cycles
 SCF Done:  E(RB3LYP) =  -237.084758519     A.U. after    9 cycles
 SCF Done:  E(RB3LYP) =  -237.084758973     A.U. after    7 cycles
 SCF Done:  E(RB3LYP) =  -237.084759065     A.U. after    6 cycles
 Optimization completed.
    -- Stationary point found.
 Normal termination of Gaussian 09 at Mon Jan 22 17:39:35 2018.

 ----------------------------------------------------------------------
 #N Geom=AllCheck Guess=TCheck SCRF=Check Test GenChk RB3LYP/6-31G(d) F
 req
 ----------------------------------------------------------------------

 IsomerC6H14/2-methyl-pentane.xyz
 --------------------------------
 Redundant internal coordinates taken from checkpoint file:
 /home/g09scr/Gau-4505.chk
 Charge =  0 Multiplicity = 1

                         Standard orientation:
 ---------------------------------------------------------------------
 Center     Atomic      Atomic             Coordinates (Angstroms)
 Number     Number       Type             X           Y           Z
 ---------------------------------------------------------------------
      1          6           0        2.846137   -0.212588    0.150111
      2          1           0        3.681662    0.406223   -0.196868
      3          1           0        2.905169   -0.268410    1.244194
      4          1           0        2.998001   -1.226722   -0.239945
      5          6           0       -1.451885    1.379560    0.195161
      6          1           0       -0.738830    2.148554   -0.120710
      7          1           0       -2.442671    1.680950   -0.165418
      8          1           0       -1.483757    1.383726    1.293014
      9          6           0        1.498671    0.360012   -0.303195
     10          1           0        1.402313    1.388186    0.068927
     11          1           0        1.482237    0.429307   -1.400580
     12          6           0        0.305164   -0.483060    0.166648
     13          1           0        0.293962   -0.515501    1.267467
     14          6           0       -1.075191   -0.013150   -0.333965
     15          1           0       -1.027877    0.044962   -1.432884
     16          6           0       -2.158795   -1.038128    0.033599
     17          1           0       -1.925777   -2.029797   -0.372569
     18          1           0       -2.249952   -1.138320    1.123226
     19          1           0       -3.139620   -0.738118   -0.354339
     20          1           0        0.460535   -1.520917   -0.163670
 ---------------------------------------------------------------------

 SCF Done:  E(RB3LYP) =  -237.084759065     A.U. after    1 cycles

 The electronic state is 1-A.
 Alpha  occ. eigenvalues --  -10.18308 -10.17578 -10.17246 -10.17016 -10.16811
 Alpha  occ. eigenvalues --  -10.16810  -0.80550  -0.75519  -0.67622  -0.66928
 Alpha  occ. eigenvalues --   -0.58797  -0.55159  -0.46603  -0.43950  -0.43382
 Alpha  occ. eigenvalues --   -0.41203  -0.39199  -0.37764  -0.37399  -0.35934
 Alpha  occ. eigenvalues --   -0.34333  -0.32925  -0.31444  -0.31138  -0.30444
 Alpha virt. eigenvalues --    0.08741   0.11080   0.12372   0.13037   0.14993
 Alpha virt. eigenvalues --    0.15867   0.16475   0.16978   0.17941   0.18662
 Alpha virt. eigenvalues --    0.19452   0.19902   0.21726   0.22059   0.23743

 Mulliken atomic charges:
              1
     1  C   -0.441793
     2  H    0.140760
     3  H    0.141221
     4  H    0.140800
     5  C   -0.444539
     6  H    0.144240
     7  H    0.138818
     8  H    0.136931
     9  C   -0.253031
    10  H    0.134714
    11  H    0.128846
    12  C   -0.238503
    13  H    0.121974
    14  C   -0.065083
    15  H    0.118618
    16  C   -0.441899
    17  H    0.138539
    18  H    0.137747
    19  H    0.138204
    20  H    0.123436
 Sum of Mulliken atomic charges =   0.00000

 Dipole moment (field-independent basis, Debye):
    X=              0.0155    Y=              0.0334    Z=             -0.0786  Tot=              0.0867
 Quadrupole moment (field-independent basis, Debye-Ang):
   XX=            -42.1047   YY=            -41.7327   ZZ=            -41.1462
   XY=              0.0403   XZ=              0.0415   YZ=              0.1562

  Exact polarizability:  74.308   0.105  62.669   0.016   0.022  58.397
 Approx polarizability:  85.689  -0.192  84.676  -0.038   0.310  85.961

                     1                      2                      3
                     A                      A                      A
 Frequencies --    80.9103               115.1715               181.3437
 Red. masses --     1.6612                 2.1890                 2.4278
 Frc consts  --     0.0064                 0.0171                 0.0470
 IR Inten    --     0.0051                 0.0134                 0.0197

                     4                      5                      6
                     A                      A                      A
 Frequencies --   230.3713               250.4525               259.5025
 Red. masses --     1.0510                 1.0959                 1.1286
 Frc consts  --     0.0329                 0.0405                 0.0448
 IR Inten    --     0.0128                 0.0032                 0.0031

                     7                      8                      9
                     A                      A                      A
 Frequencies --   320.5341               380.4037               442.3051
 Red. masses --     2.4482                 2.2854                 2.4030
 Frc consts  --     0.1482                 0.1948                 0.2770
 IR Inten    --     0.0111                 0.1328                 0.1984

                    10                     11                     12
                     A                      A                      A
 Frequencies --   447.7436               751.9201               821.2088
 Red. masses --     2.1171                 1.1171                 2.3726
 Frc consts  --     0.2501                 0.3721                 0.9427
 IR Inten    --     0.0344                 2.5926                 0.4755

                    13                     14                     15
                     A                      A                      A
 Frequencies --   873.7120               907.1247               939.3056
 Red. masses --     1.2587                 1.8793                 1.1821
 Frc consts  --     0.5661                 0.9111                 0.6145
 IR Inten    --     0.9804                 0.5521                 1.6747

                    16                     17                     18
                     A                      A                      A
 Frequencies --   970.5664               978.0557              1036.8718
 Red. masses --     1.6950                 1.6032                 1.3173
 Frc consts  --     0.9407                 0.9036                 0.8344
 IR Inten    --     1.5907                 1.1521                 0.2612

                    19                     20                     21
                     A                      A                      A
 Frequencies --  1056.8394              1089.7823              1177.8121
 Red. masses --     2.2261                 2.0107                 2.1306
 Frc consts  --     1.4649                 1.4070                 1.7414
 IR Inten    --     0.2443                 0.5127                 2.1839

                    22                     23                     24
                     A                      A                      A
 Frequencies --  1205.6586              1217.6253              1287.0223
 Red. masses --     1.7487                 1.9750                 1.3571
 Frc consts  --     1.4977                 1.7252                 1.3245
 IR Inten    --     3.2666                 0.2924                 2.5458

                    25                     26                     27
                     A                      A                      A
 Frequencies --  1318.5848              1346.1649              1376.2123
 Red. masses --     1.2525                 1.1150                 1.3895
 Frc consts  --     1.2831                 1.1905                 1.5505
 IR Inten    --     3.1836                 0.4443                 0.9769

                    28                     29                     30
                     A                      A                      A
 Frequencies --  1389.1546              1420.1280              1428.6459
 Red. masses --     1.3409                 1.5501                 1.2645
 Frc consts  --     1.5246                 1.8419                 1.5206
 IR Inten    --     3.4583                 1.8808                 4.4528

                    31                     32                     33
                     A                      A                      A
 Frequencies --  1442.2985              1448.5795              1509.7037
 Red. masses --     1.2437                 1.2387                 1.0724
 Frc consts  --     1.5243                 1.5314                 1.4401
 IR Inten    --     1.4785                 3.0537                 0.1027

                    34                     35                     36
                     A                      A                      A
 Frequencies --  1520.4147              1523.5429              1526.8332
 Red. masses --     1.0465                 1.0552                 1.0606
 Frc consts  --     1.4254                 1.4431                 1.4568
 IR Inten    --     0.4222                 1.3018                 0.9062

                    37                     38                     39
                     A                      A                      A
 Frequencies --  1530.5020              1535.5835              1539.0990
 Red. masses --     1.0412                 1.0547                 1.0679
 Frc consts  --     1.4370                 1.4653                 1.4904
 IR Inten    --     7.6670                 2.1919                 2.6237

                    40                     41                     42
                     A                      A                      A
 Frequencies --  1542.8644              3001.4066              3009.0427
 Red. masses --     1.0616                 1.0791                 1.0631
 Frc consts  --     1.4889                 5.7274                 5.6711
 IR Inten    --     9.5956                 6.6400                22.8891

                    43                     44                     45
                     A                      A                      A
 Frequencies --  3028.0328              3034.7435              3039.9897
 Red. masses --     1.0659                 1.0366                 1.0576
 Frc consts  --     5.7585                 5.6248                 5.7585
 IR Inten    --    35.4394                33.2745                40.7224

                    46                     47                     48
                     A                      A                      A
 Frequencies --  3040.6140              3041.4191              3068.7031
 Red. masses --     1.0727                 1.0385                 1.1016
 Frc consts  --     5.8433                 5.6598                 6.1119
 IR Inten    --    20.9460                16.6858                34.6794

                    49                     50                     51
                     A                      A                      A
 Frequencies --  3096.5248              3102.5673              3106.1529
 Red. masses --     1.1011                 1.1008                 1.1027
 Frc consts  --     6.2202                 6.2430                 6.2686
 IR Inten    --     5.0756                53.9653                79.4998

                    52                     53                     54
                     A                      A                      A
 Frequencies --  3108.0434              3110.2888              3118.2198
 Red. masses --     1.1023                 1.1019                 1.1000
 Frc consts  --     6.2735                 6.2802                 6.3019
 IR Inten    --    53.7826                40.7285                45.4873

 - Thermochemistry -
 -------------------
 Temperature   298.150 Kelvin.  Pressure   1.00000 Atm.
 Atom     1 has atomic number  6 and mass  12.00000

 Molecular mass:    86.10955 amu.
 Principal axes and moments of inertia in atomic units:
                           1         2         3
     Eigenvalues --   273.985131067.186331240.24296
           X            1.00000  -0.00106  -0.00058
           Y            0.00105   1.00000  -0.00210
           Z            0.00059   0.00210   1.00000
 This molecule is an asymmetric top.
 Rotational symmetry number  1.
 Rotational temperatures (Kelvin)      0.31613     0.08116     0.06984
 Rotational constants (GHZ):           6.58700     1.69112     1.45515
 Zero-point vibrational energy     498402.0 (Joules/Mol)
                                  119.12093 (Kcal/Mol)
 Warning -- explicit consideration of  10 degrees of freedom as
           vibrations may cause significant error
 Vibrational temperatures:    116.41   165.71   260.91   331.45   360.34
          (Kelvin)            373.37   461.18   547.32   636.38   644.20
                             1081.84  1181.53  1257.08  1305.15  1351.45
                             1396.43  1407.20  1491.83  1520.55  1567.95
                             1694.61  1734.67  1751.89  1851.74  1897.15
                             1936.83  1980.06  1998.68  2043.24  2055.50
                             2075.14  2084.18  2172.12  2187.53  2192.04
                             2196.77  2202.05  2209.36  2214.42  2219.83
                             4318.35  4329.34  4356.66  4366.31  4373.86
                             4374.76  4375.92  4415.17  4455.20  4463.90
                             4469.06  4471.78  4475.01  4486.42

 Zero-point correction=                           0.189831 (Hartree/Particle)
 Thermal correction to Energy=                    0.198118
 Thermal correction to Enthalpy=                  0.199062
 Thermal correction to Gibbs Free Energy=         0.157764
 Sum of electronic and zero-point Energies=           -236.894928
 Sum of electronic and thermal Energies=              -236.886641
 Sum of electronic and thermal Enthalpies=            -236.885697
 Sum of electronic and thermal Free Energies=         -236.926995

                     E (Thermal)             CV                S
                      KCal/Mol        Cal/Mol-Kelvin    Cal/Mol-Kelvin
 Total                  124.321             29.684             86.920
 Electronic               0.000              0.000              0.000
 Translational            0.889              2.981             39.272
 Rotational               0.889              2.981             27.386
 Vibrational            122.544             23.722             20.262
 Vibration     1          0.600              1.962              3.869
 Vibration     2          0.608              1.937              3.180
 Vibration     3          0.630              1.865              2.315
 Vibration     4          0.652              1.795              1.876
 Vibration     5          0.663              1.762              1.727
 Vibration     6          0.668              1.747              1.665
 Vibration     7          0.706              1.634              1.307
 Vibration     8          0.750              1.512              1.038
 Vibration     9          0.802              1.378              0.819
 Vibration    10          0.807              1.366              0.803

 Optimization completed.
    -- Stationary point found.
 Normal termination of Gaussian 09 at Mon Jan 22 17:40:28 2018.
