 Gaussian 09, Revision B.01,
 Gaussian 09:  EM64L-G09RevB.01 12-Aug-2010

 ----------------------------
 #B3LYP/6-31G* fopt test freq
 ----------------------------

 -----------------------------------
 NeoConformation/tert-butylamine.xyz
 -----------------------------------
 Symbolic Z-matrix:
 Charge =  0 Multiplicity = 1

 SCF Done:  E(RB3LYP) =  -213.801401874     A.U. after   13 cycles
 SCF Done:  E(RB3LYP) =  -213.803025700     A.U. after   13 cycles
 SCF Done:  E(RB3LYP) =  -213.803105958     A.U. after    9 cycles
 SCF Done:  E(RB3LYP) =  -213.803110609     A.U. after    8 cycles
 Optimization completed.
    -- Stationary point found.
 Normal termination of Gaussian 09 at Mon Jan 22 17:41:56 2018.

 ----------------------------------------------------------------------
 #N Geom=AllCheck Guess=TCheck SCRF=Check Test GenChk RB3LYP/6-31G(d) F
 req
 ----------------------------------------------------------------------

 NeoConformation/tert-butylamine.xyz
 -----------------------------------
 Redundant internal coordinates taken from checkpoint file:
 /home/g09scr/Gau-5234.chk
 Charge =  0 Multiplicity = 1

                         Standard orientation:
 ---------------------------------------------------------------------
 Center     Atomic      Atomic             Coordinates (Angstroms)
 Number     Number       Type             X           Y           Z
 ---------------------------------------------------------------------
      1          6           0        0.000000   -0.005064    0.015838
      2          6           0        0.000070    1.360023   -0.705185
      3          6           0        1.258758   -0.798894   -0.366607
      4          6           0       -1.258817   -0.798785   -0.366641
      5          7           0       -0.000013    0.134141    1.487738
      6          1           0       -0.887062    1.945377   -0.430934
      7          1           0        0.000073    1.246584   -1.796702
      8          1           0        0.887250    1.945302   -0.430924
      9          1           0        1.270365   -1.765324    0.147285
     10          1           0        2.167893   -0.253193   -0.082000
     11          1           0        1.301197   -0.973950   -1.447598
     12          1           0       -1.270555   -1.765180    0.147314
     13          1           0       -1.301199   -0.973908   -1.447622
     14          1           0       -2.167915   -0.252968   -0.082136
     15          1           0       -0.813060    0.682307    1.772350
     16          1           0        0.813040    0.682287    1.772371
 ---------------------------------------------------------------------

 SCF Done:  E(RB3LYP) =  -213.803110609     A.U. after    1 cycles

 The electronic state is 1-A.
 Alpha  occ. eigenvalues --  -14.30428 -10.21604 -10.17074 -10.16747 -10.16746
 Alpha  occ. eigenvalues --   -0.88276  -0.75550  -0.68143  -0.68104  -0.54410
 Alpha  occ. eigenvalues --   -0.47723  -0.45641  -0.43367  -0.41296  -0.38857
 Alpha  occ. eigenvalues --   -0.37258  -0.36036  -0.35306  -0.32846  -0.32213
 Alpha  occ. eigenvalues --   -0.22942
 Alpha virt. eigenvalues --    0.06843   0.12771   0.13023   0.13983   0.15883
 Alpha virt. eigenvalues --    0.16478   0.16876   0.18164   0.19934   0.21859
 Alpha virt. eigenvalues --    0.22147   0.22640   0.25312   0.25365   0.26849

 Mulliken atomic charges:
              1
     1  C    0.187351
     2  C   -0.439547
     3  C   -0.430691
     4  C   -0.430696
     5  N   -0.706160
     6  H    0.131528
     7  H    0.138116
     8  H    0.131528
     9  H    0.155831
    10  H    0.130230
    11  H    0.137167
    12  H    0.155832
    13  H    0.137169
    14  H    0.130230
    15  H    0.286055
    16  H    0.286055
 Sum of Mulliken atomic charges =   0.00000

 Dipole moment (field-independent basis, Debye):
    X=              0.0000    Y=              1.1869    Z=             -0.4738  Tot=              1.2780
 Quadrupole moment (field-independent basis, Debye-Ang):
   XX=            -32.8528   YY=            -33.8887   ZZ=            -34.9841
   XY=              0.0000   XZ=              0.0001   YZ=              3.0425

  Exact polarizability:  51.821   0.000  49.412   0.000   1.266  50.549
 Approx polarizability:  68.682   0.000  64.198   0.000   1.754  69.533

                     1                      2                      3
                     A                      A                      A
 Frequencies --   215.0777               274.4606               277.3336
 Red. masses --     1.0142                 1.0390                 1.0589
 Frc consts  --     0.0276                 0.0461                 0.0480
 IR Inten    --     4.7887                 0.0091                10.4384

                     4                      5                      6
                     A                      A                      A
 Frequencies --   296.2856               336.8996               344.7747
 Red. masses --     1.0380                 2.2809                 2.2155
 Frc consts  --     0.0537                 0.1525                 0.1552
 IR Inten    --    26.9319                 1.1489                 5.4081

                     7                      8                      9
                     A                      A                      A
 Frequencies --   421.0519               448.0518               451.3287
 Red. masses --     2.1253                 2.3869                 2.3392
 Frc consts  --     0.2220                 0.2823                 0.2807
 IR Inten    --     0.1021                 8.4982                 5.5120

                    10                     11                     12
                     A                      A                      A
 Frequencies --   744.6258               901.8413               919.7704
 Red. masses --     3.7349                 1.6850                 1.8230
 Frc consts  --     1.2201                 0.8074                 0.9087
 IR Inten    --     1.3286               131.0573                 2.5565

                    13                     14                     15
                     A                      A                      A
 Frequencies --   937.8796               964.4463               969.6771
 Red. masses --     1.8027                 1.5398                 1.2056
 Frc consts  --     0.9342                 0.8439                 0.6679
 IR Inten    --     0.1947                10.7972                 0.0086

                    16                     17                     18
                     A                      A                      A
 Frequencies --  1022.4897              1071.5129              1145.2023
 Red. masses --     1.2985                 1.3826                 1.3730
 Frc consts  --     0.7999                 0.9353                 1.0609
 IR Inten    --     1.2500                12.8453                 2.2728

                    19                     20                     21
                     A                      A                      A
 Frequencies --  1252.8708              1290.6023              1367.2507
 Red. masses --     2.5977                 2.7279                 1.8166
 Frc consts  --     2.4024                 2.6771                 2.0008
 IR Inten    --    35.8339                18.6002                 2.4463

                    22                     23                     24
                     A                      A                      A
 Frequencies --  1425.9754              1428.3730              1453.7854
 Red. masses --     1.2500                 1.3239                 1.2330
 Frc consts  --     1.4976                 1.5914                 1.5354
 IR Inten    --     7.8004                 8.7454                 3.1359

                    25                     26                     27
                     A                      A                      A
 Frequencies --  1507.9207              1512.4242              1517.7409
 Red. masses --     1.0490                 1.0462                 1.0443
 Frc consts  --     1.4054                 1.4100                 1.4173
 IR Inten    --     0.0021                 0.1403                 0.0519

                    28                     29                     30
                     A                      A                      A
 Frequencies --  1528.8811              1535.4594              1546.2396
 Red. masses --     1.0551                 1.0717                 1.0570
 Frc consts  --     1.4531                 1.4887                 1.4890
 IR Inten    --     2.0530                 4.3568                 6.0219

                    31                     32                     33
                     A                      A                      A
 Frequencies --  1695.7368              3029.0719              3040.1424
 Red. masses --     1.0935                 1.0350                 1.0374
 Frc consts  --     1.8527                 5.5951                 5.6492
 IR Inten    --    26.0903                26.8489                46.2063

                    34                     35                     36
                     A                      A                      A
 Frequencies --  3046.7359              3095.6977              3096.9327
 Red. masses --     1.0390                 1.1022                 1.1017
 Frc consts  --     5.6823                 6.2233                 6.2253
 IR Inten    --     2.6553                22.9278                 8.0176

                    37                     38                     39
                     A                      A                      A
 Frequencies --  3104.6184              3108.8088              3128.3729
 Red. masses --     1.1000                 1.0981                 1.1029
 Frc consts  --     6.2466                 6.2531                 6.3597
 IR Inten    --    32.1332                80.8205                 0.7110

                    40                     41                     42
                     A                      A                      A
 Frequencies --  3134.2390              3435.6694              3520.1242
 Red. masses --     1.1023                 1.0494                 1.0917
 Frc consts  --     6.3796                 7.2979                 7.9703
 IR Inten    --    52.9524                 4.6921                 2.9209

 - Thermochemistry -
 -------------------
 Temperature   298.150 Kelvin.  Pressure   1.00000 Atm.
 Atom     1 has atomic number  6 and mass  12.00000

 Molecular mass:    73.08915 amu.
 Principal axes and moments of inertia in atomic units:
                           1         2         3
     Eigenvalues --   394.95145 396.94111 405.73492
           X            1.00000  -0.00007   0.00001
           Y            0.00006   0.93373   0.35798
           Z           -0.00003  -0.35798   0.93373
 This molecule is an asymmetric top.
 Rotational symmetry number  1.
 Rotational temperatures (Kelvin)      0.21930     0.21820     0.21347
 Rotational constants (GHZ):           4.56953     4.54662     4.44808
 Zero-point vibrational energy     392054.4 (Joules/Mol)
                                   93.70326 (Kcal/Mol)
 Warning -- explicit consideration of   9 degrees of freedom as
           vibrations may cause significant error
 Vibrational temperatures:    309.45   394.89   399.02   426.29   484.72
          (Kelvin)            496.05   605.80   644.65   649.36  1071.35
                             1297.55  1323.34  1349.40  1387.62  1395.15
                             1471.13  1541.67  1647.69  1802.60  1856.89
                             1967.17  2051.66  2055.11  2091.67  2169.56
                             2176.04  2183.69  2199.72  2209.18  2224.69
                             2439.78  4358.15  4374.08  4383.57  4454.01
                             4455.79  4466.85  4472.88  4501.03  4509.47
                             4943.16  5064.67

 Zero-point correction=                           0.149326 (Hartree/Particle)
 Thermal correction to Energy=                    0.156078
 Thermal correction to Enthalpy=                  0.157022
 Thermal correction to Gibbs Free Energy=         0.120362
 Sum of electronic and zero-point Energies=           -213.653785
 Sum of electronic and thermal Energies=              -213.647033
 Sum of electronic and thermal Enthalpies=            -213.646088
 Sum of electronic and thermal Free Energies=         -213.682749

                     E (Thermal)             CV                S
                      KCal/Mol        Cal/Mol-Kelvin    Cal/Mol-Kelvin
 Total                   97.940             25.306             77.158
 Electronic               0.000              0.000              0.000
 Translational            0.889              2.981             38.784
 Rotational               0.889              2.981             25.656
 Vibrational             96.163             19.345             12.718
 Vibration     1          0.645              1.818              2.000
 Vibration     2          0.677              1.721              1.568
 Vibration     3          0.678              1.715              1.550
 Vibration     4          0.690              1.681              1.438
 Vibration     5          0.718              1.602              1.227
 Vibration     6          0.723              1.586              1.190
 Vibration     7          0.784              1.424              0.888
 Vibration     8          0.807              1.365              0.802
 Vibration     9          0.810              1.358              0.792

 Optimization completed.
    -- Stationary point found.
 Normal termination of Gaussian 09 at Mon Jan 22 17:42:28 2018.
