 Gaussian 09, Revision B.01,
 Gaussian 09:  EM64L-G09RevB.01 12-Aug-2010

 ----------------------------
 #B3LYP/6-31G* fopt test freq
 ----------------------------

 -------------------------------------
 NeoConformation/tetramethylsilane.xyz
 -------------------------------------
 Symbolic Z-matrix:
 Charge =  0 Multiplicity = 1

 SCF Done:  E(RB3LYP) =  -449.191092540     A.U. after   11 cycles
 SCF Done:  E(RB3LYP) =  -449.191777923     A.U. after    7 cycles
 Optimization completed.
    -- Stationary point found.

 1\1\GINC-TERMINUS\FOpt\RB3LYP\6-31G(d)\C4H12Si1\FRODOX\22-Jan-2018\0\\
 #B3LYP/6-31G* fopt test freq\\NeoConformation/tetramethylsilane.xyz\\0
 ,1\Si,0.,0.,0.\C,1.0947338803,1.0947338803,1.0947338803\H,1.7422472343
 ,1.7422472343,0.4908248464\H,0.4908248464,1.7422472343,1.7422472343\H,
 1.7422472343,0.4908248464,1.7422472343\C,-1.0947338803,-1.0947338803,1
 .0947338803\H,-0.4908248464,-1.7422472343,1.7422472343\H,-1.7422472343
 ,-0.4908248464,1.7422472343\H,-1.7422472343,-1.7422472343,0.4908248464
 \C,-1.0947338803,1.0947338803,-1.0947338803\H,-1.7422472343,0.49082484

 Normal termination of Gaussian 09 at Mon Jan 22 17:42:31 2018.

 ----------------------------------------------------------------------
 #N Geom=AllCheck Guess=TCheck SCRF=Check Test GenChk RB3LYP/6-31G(d) F
 req
 ----------------------------------------------------------------------

 NeoConformation/tetramethylsilane.xyz
 -------------------------------------
 Redundant internal coordinates taken from checkpoint file:
 /home/g09scr/Gau-5499.chk
 Charge =  0 Multiplicity = 1

                         Standard orientation:
 ---------------------------------------------------------------------
 Center     Atomic      Atomic             Coordinates (Angstroms)
 Number     Number       Type             X           Y           Z
 ---------------------------------------------------------------------
      1         14           0        0.000000    0.000000    0.000000
      2          6           0        1.094734    1.094734    1.094734
      3          1           0        1.742247    1.742247    0.490825
      4          1           0        0.490825    1.742247    1.742247
      5          1           0        1.742247    0.490825    1.742247
      6          6           0       -1.094734   -1.094734    1.094734
      7          1           0       -0.490825   -1.742247    1.742247
      8          1           0       -1.742247   -0.490825    1.742247
      9          1           0       -1.742247   -1.742247    0.490825
     10          6           0       -1.094734    1.094734   -1.094734
     11          1           0       -1.742247    0.490825   -1.742247
     12          1           0       -1.742247    1.742247   -0.490825
     13          1           0       -0.490825    1.742247   -1.742247
     14          6           0        1.094734   -1.094734   -1.094734
     15          1           0        0.490825   -1.742247   -1.742247
     16          1           0        1.742247   -0.490825   -1.742247
     17          1           0        1.742247   -1.742247   -0.490825
 ---------------------------------------------------------------------

 SCF Done:  E(RB3LYP) =  -449.191777923     A.U. after    1 cycles

 The electronic state is 1-A1.
 Alpha  occ. eigenvalues --  -66.11127 -10.15506 -10.15506 -10.15506 -10.15506
 Alpha  occ. eigenvalues --   -5.25579  -3.61451  -3.61451  -3.61451  -0.71111
 Alpha  occ. eigenvalues --   -0.66951  -0.66951  -0.66951  -0.45037  -0.40574
 Alpha  occ. eigenvalues --   -0.40574  -0.40574  -0.39091  -0.39091  -0.37394
 Alpha  occ. eigenvalues --   -0.37394  -0.37394  -0.28850  -0.28850  -0.28850
 Alpha virt. eigenvalues --    0.07508   0.10295   0.10295   0.10295   0.14029
 Alpha virt. eigenvalues --    0.14029   0.14029   0.15139   0.15139   0.20272
 Alpha virt. eigenvalues --    0.20272   0.20272   0.20606   0.20606   0.20606

 Mulliken atomic charges:
              1
     1  Si   0.737110
     2  C   -0.654238
     3  H    0.156654
     4  H    0.156654
     5  H    0.156654
     6  C   -0.654238
     7  H    0.156654
     8  H    0.156654
     9  H    0.156654
    10  C   -0.654238
    11  H    0.156654
    12  H    0.156654
    13  H    0.156654
    14  C   -0.654238
    15  H    0.156654
    16  H    0.156654
    17  H    0.156654
 Sum of Mulliken atomic charges =   0.00000

 Dipole moment (field-independent basis, Debye):
    X=              0.0000    Y=              0.0000    Z=              0.0000  Tot=              0.0000
 Quadrupole moment (field-independent basis, Debye-Ang):
   XX=            -41.5767   YY=            -41.5767   ZZ=            -41.5767
   XY=              0.0000   XZ=              0.0000   YZ=              0.0000

  Exact polarizability:  63.484   0.000  63.484   0.000   0.000  63.484
 Approx polarizability:  83.492   0.000  83.492   0.000   0.000  83.492

                     1                      2                      3
                    A2                     T1                     T1
 Frequencies --   156.0268               159.4310               159.4310
 Red. masses --     1.0078                 1.0231                 1.0231
 Frc consts  --     0.0145                 0.0153                 0.0153
 IR Inten    --     0.0000                 0.0000                 0.0000

                     4                      5                      6
                    T1                      E                      E
 Frequencies --   159.4310               179.3378               179.3378
 Red. masses --     1.0231                 2.2975                 2.2975
 Frc consts  --     0.0153                 0.0435                 0.0435
 IR Inten    --     0.0000                 0.0000                 0.0000

                     7                      8                      9
                    T2                     T2                     T2
 Frequencies --   221.1405               221.1405               221.1405
 Red. masses --     2.3383                 2.3383                 2.3383
 Frc consts  --     0.0674                 0.0674                 0.0674
 IR Inten    --     2.1910                 2.1910                 2.1910

                    10                     11                     12
                    A1                     T2                     T2
 Frequencies --   573.1889               693.9714               693.9714
 Red. masses --     3.5926                 3.0576                 3.0576
 Frc consts  --     0.6954                 0.8676                 0.8676
 IR Inten    --     0.0000                12.0435                12.0435

                    13                     14                     15
                    T2                     T1                     T1
 Frequencies --   693.9714               704.6116               704.6116
 Red. masses --     3.0576                 1.1685                 1.1685
 Frc consts  --     0.8676                 0.3418                 0.3418
 IR Inten    --    12.0435                 0.0000                 0.0000

                    16                     17                     18
                    T1                      E                      E
 Frequencies --   704.6116               850.6768               850.6768
 Red. masses --     1.1685                 1.3068                 1.3068
 Frc consts  --     0.3418                 0.5572                 0.5572
 IR Inten    --     0.0000                 0.0000                 0.0000

                    19                     20                     21
                    T2                     T2                     T2
 Frequencies --   907.0116               907.0116               907.0116
 Red. masses --     1.7221                 1.7221                 1.7221
 Frc consts  --     0.8347                 0.8347                 0.8347
 IR Inten    --   140.4473               140.4473               140.4473

                    22                     23                     24
                    T2                     T2                     T2
 Frequencies --  1325.7929              1325.7929              1325.7929
 Red. masses --     1.2428                 1.2428                 1.2428
 Frc consts  --     1.2871                 1.2871                 1.2871
 IR Inten    --    30.5680                30.5680                30.5680

                    25                     26                     27
                    A1                     T1                     T1
 Frequencies --  1333.8919              1490.3154              1490.3154
 Red. masses --     1.2145                 1.0540                 1.0540
 Frc consts  --     1.2732                 1.3793                 1.3793
 IR Inten    --     0.0000                 0.0000                 0.0000

                    28                     29                     30
                    T1                      E                      E
 Frequencies --  1490.3154              1492.4567              1492.4567
 Red. masses --     1.0540                 1.0512                 1.0512
 Frc consts  --     1.3793                 1.3796                 1.3796
 IR Inten    --     0.0000                 0.0000                 0.0000

                    31                     32                     33
                    T2                     T2                     T2
 Frequencies --  1506.6559              1506.6559              1506.6559
 Red. masses --     1.0464                 1.0464                 1.0464
 Frc consts  --     1.3995                 1.3995                 1.3995
 IR Inten    --     4.8370                 4.8370                 4.8370

                    34                     35                     36
                    T2                     T2                     T2
 Frequencies --  3036.6299              3036.6299              3036.6299
 Red. masses --     1.0352                 1.0352                 1.0352
 Frc consts  --     5.6243                 5.6243                 5.6243
 IR Inten    --    10.0665                10.0665                10.0665

                    37                     38                     39
                    A1                      E                      E
 Frequencies --  3039.5799              3109.2395              3109.2395
 Red. masses --     1.0351                 1.1010                 1.1010
 Frc consts  --     5.6345                 6.2711                 6.2711
 IR Inten    --     0.0000                 0.0000                 0.0000

                    40                     41                     42
                    T1                     T1                     T1
 Frequencies --  3109.9289              3109.9289              3109.9289
 Red. masses --     1.1009                 1.1009                 1.1009
 Frc consts  --     6.2736                 6.2736                 6.2736
 IR Inten    --     0.0000                 0.0000                 0.0000

                    43                     44                     45
                    T2                     T2                     T2
 Frequencies --  3113.1934              3113.1934              3113.1934
 Red. masses --     1.1002                 1.1002                 1.1002
 Frc consts  --     6.2826                 6.2826                 6.2826
 IR Inten    --    48.2448                48.2448                48.2448

 - Thermochemistry -
 -------------------
 Temperature   298.150 Kelvin.  Pressure   1.00000 Atm.
 Atom     1 has atomic number 14 and mass  27.97693

 Molecular mass:    88.07083 amu.
 Principal axes and moments of inertia in atomic units:
                           1         2         3
     Eigenvalues --   592.58127 592.58127 592.58127
           X           -0.08709   0.99620   0.00000
           Y            0.99620   0.08709   0.00000
           Z            0.00000   0.00000   1.00000
 This molecule is a spherical top.
 Rotational symmetry number 12.
 Warning -- assumption of classical behavior for rotation
           may cause significant error
 Rotational temperatures (Kelvin)      0.14616     0.14616     0.14616
 Rotational constants (GHZ):           3.04556     3.04556     3.04556
 Zero-point vibrational energy     389816.1 (Joules/Mol)
                                   93.16827 (Kcal/Mol)
 Warning -- explicit consideration of  10 degrees of freedom as
           vibrations may cause significant error
 Vibrational temperatures:    224.49   229.39   229.39   229.39   258.03
          (Kelvin)            258.03   318.17   318.17   318.17   824.69
                              998.47   998.47   998.47  1013.78  1013.78
                             1013.78  1223.93  1223.93  1304.99  1304.99
                             1304.99  1907.52  1907.52  1907.52  1919.17
                             2144.23  2144.23  2144.23  2147.31  2147.31
                             2167.74  2167.74  2167.74  4369.03  4369.03
                             4369.03  4373.27  4473.50  4473.50  4474.49
                             4474.49  4474.49  4479.19  4479.19  4479.19

 Zero-point correction=                           0.148473 (Hartree/Particle)
 Thermal correction to Energy=                    0.157813
 Thermal correction to Enthalpy=                  0.158757
 Thermal correction to Gibbs Free Energy=         0.118228
 Sum of electronic and zero-point Energies=           -449.043305
 Sum of electronic and thermal Energies=              -449.033965
 Sum of electronic and thermal Enthalpies=            -449.033021
 Sum of electronic and thermal Free Energies=         -449.073550

                     E (Thermal)             CV                S
                      KCal/Mol        Cal/Mol-Kelvin    Cal/Mol-Kelvin
 Total                   99.029             32.530             85.302
 Electronic               0.000              0.000              0.000
 Translational            0.889              2.981             39.339
 Rotational               0.889              2.981             21.896
 Vibrational             97.252             26.568             24.067
 Vibration     1          0.620              1.896              2.597
 Vibration     2          0.621              1.892              2.557
 Vibration     3          0.621              1.892              2.557
 Vibration     4          0.621              1.892              2.557
 Vibration     5          0.629              1.868              2.335
 Vibration     6          0.629              1.868              2.335
 Vibration     7          0.648              1.809              1.950
 Vibration     8          0.648              1.809              1.950
 Vibration     9          0.648              1.809              1.950
 Vibration    10          0.929              1.089              0.498

 Optimization completed.
    -- Stationary point found.

 1\1\GINC-TERMINUS\Freq\RB3LYP\6-31G(d)\C4H12Si1\FRODOX\22-Jan-2018\0\\
 #N Geom=AllCheck Guess=TCheck SCRF=Check Test GenChk RB3LYP/6-31G(d) F
 req\\NeoConformation/tetramethylsilane.xyz\\0,1\Si,0.,0.,0.\C,1.094733
 8803,1.0947338803,1.0947338803\H,1.7422472343,1.7422472343,0.490824846
 4\H,0.4908248464,1.7422472343,1.7422472343\H,1.7422472343,0.4908248464
 ,1.7422472343\C,-1.0947338803,-1.0947338803,1.0947338803\H,-0.49082484
 64,-1.7422472343,1.7422472343\H,-1.7422472343,-0.4908248464,1.74224723
 43\H,-1.7422472343,-1.7422472343,0.4908248464\C,-1.0947338803,1.094733

 Normal termination of Gaussian 09 at Mon Jan 22 17:42:40 2018.
