 Gaussian 09, Revision B.01,
 Gaussian 09:  EM64L-G09RevB.01 12-Aug-2010

 -----------------------
 #B3LYP/6-31G* fopt test
 -----------------------

 ----------------------
 IsomerC6H14/hexane.xyz
 ----------------------
 Symbolic Z-matrix:
 Charge =  0 Multiplicity = 1

 SCF Done:  E(RB3LYP) =  -237.085031478     A.U. after   12 cycles
 SCF Done:  E(RB3LYP) =  -237.085493549     A.U. after   10 cycles
 SCF Done:  E(RB3LYP) =  -237.085500432     A.U. after    7 cycles
 Optimization completed.
    -- Stationary point found.

                         Standard orientation:
 ---------------------------------------------------------------------
 Center     Atomic      Atomic             Coordinates (Angstroms)
 Number     Number       Type             X           Y           Z
 ---------------------------------------------------------------------
      1          6           0        1.415601    2.902946    0.000000
      2          6           0       -1.415601   -2.902946    0.000000
      3          6           0        0.005695    0.766748    0.000000
      4          6           0       -0.005695   -0.766748    0.000000
      5          6           0       -1.415601   -1.371076    0.000000
      6          6           0        1.415601    1.371076    0.000000
      7          1           0       -2.435281   -3.304529    0.000000
      8          1           0        2.435281    3.304529    0.000000
      9          1           0        0.901540    3.299064    0.884491
     10          1           0        0.901540    3.299064   -0.884491
     11          1           0       -0.901540   -3.299064   -0.884491
     12          1           0       -0.901540   -3.299064    0.884491
     13          1           0        1.966524    1.004438   -0.877831
     14          1           0        1.966524    1.004438    0.877831
     15          1           0       -1.966524   -1.004438   -0.877831
     16          1           0       -1.966524   -1.004438    0.877831
     17          1           0       -0.545790    1.134609    0.878321
     18          1           0       -0.545790    1.134609   -0.878321
     19          1           0        0.545790   -1.134609   -0.878321
     20          1           0        0.545790   -1.134609    0.878321
 ---------------------------------------------------------------------

 The electronic state is 1-AG.
 Alpha  occ. eigenvalues --  -10.17586 -10.17586 -10.17364 -10.17343 -10.16984
 Alpha  occ. eigenvalues --  -10.16984  -0.79898  -0.76134  -0.70302  -0.63358
 Alpha  occ. eigenvalues --   -0.57768  -0.57021  -0.47317  -0.44031  -0.42907
 Alpha  occ. eigenvalues --   -0.41554  -0.39471  -0.37567  -0.37364  -0.35085
 Alpha  occ. eigenvalues --   -0.33685  -0.32371  -0.32034  -0.31659  -0.30420
 Alpha virt. eigenvalues --    0.09280   0.10462   0.12305   0.13231   0.13698
 Alpha virt. eigenvalues --    0.16283   0.16862   0.16950   0.18635   0.19185
 Alpha virt. eigenvalues --    0.19437   0.20009   0.20567   0.20677   0.22969

 Mulliken atomic charges:
              1
     1  C   -0.441248
     2  C   -0.441248
     3  C   -0.245320
     4  C   -0.245320
     5  C   -0.246695
     6  C   -0.246695
     7  H    0.140922
     8  H    0.140922
     9  H    0.140810
    10  H    0.140810
    11  H    0.140810
    12  H    0.140810
    13  H    0.129577
    14  H    0.129577
    15  H    0.129577
    16  H    0.129577
    17  H    0.125784
    18  H    0.125784
    19  H    0.125784
    20  H    0.125784
 Sum of Mulliken atomic charges =   0.00000

 Dipole moment (field-independent basis, Debye):
    X=              0.0000    Y=              0.0000    Z=              0.0000  Tot=              0.0000
 Quadrupole moment (field-independent basis, Debye-Ang):
   XX=            -41.5765   YY=            -42.5284   ZZ=            -40.7735
   XY=             -0.1147   XZ=              0.0000   YZ=              0.0000

 Normal termination of Gaussian 09 at Fri Jan  5 13:29:20 2018.
