 Gaussian 09, Revision B.01,
 Gaussian 09:  EM64L-G09RevB.01 12-Aug-2010

 -----------------------
 #B3LYP/6-31G* fopt test
 -----------------------

 ------------------------------
 NeoConformation/neopentane.xyz
 ------------------------------
 Symbolic Z-matrix:
 Charge =  0 Multiplicity = 1

 SCF Done:  E(RB3LYP) =  -197.770633381     A.U. after   12 cycles
 SCF Done:  E(RB3LYP) =  -197.772894429     A.U. after   12 cycles
 SCF Done:  E(RB3LYP) =  -197.772975583     A.U. after   12 cycles
 SCF Done:  E(RB3LYP) =  -197.773002879     A.U. after   11 cycles
 SCF Done:  E(RB3LYP) =  -197.772988492     A.U. after   12 cycles
 Optimization completed.
    -- Stationary point found.

                         Standard orientation:
 ---------------------------------------------------------------------
 Center     Atomic      Atomic             Coordinates (Angstroms)
 Number     Number       Type             X           Y           Z
 ---------------------------------------------------------------------
      1          6           0        0.194332    1.490217   -0.337470
      2          6           0       -0.000044   -0.000019   -0.000083
      3          6           0        1.140309   -0.821991   -0.629748
      4          6           0        0.016353   -0.186548    1.528767
      5          6           0       -1.350994   -0.481682   -0.561556
      6          1           0        0.186196    1.655364   -1.422056
      7          1           0       -0.604101    2.102695    0.099709
      8          1           0        1.151012    1.862581    0.049693
      9          1           0        2.117513   -0.500269   -0.248631
     10          1           0        1.029367   -1.890172   -0.405274
     11          1           0        1.153975   -0.709659   -1.721048
     12          1           0       -0.786952    0.388008    2.006505
     13          1           0       -0.119518   -1.240736    1.800682
     14          1           0        0.968281    0.149010    1.958870
     15          1           0       -1.392176   -0.362483   -1.651387
     16          1           0       -1.518891   -1.541939   -0.334926
     17          1           0       -2.184436    0.087732   -0.131595
 ---------------------------------------------------------------------

 The electronic state is 1-A.
 Alpha  occ. eigenvalues --  -10.19236 -10.16765 -10.16764 -10.16764 -10.16763
 Alpha  occ. eigenvalues --   -0.81218  -0.67745  -0.67744  -0.67744  -0.52750
 Alpha  occ. eigenvalues --   -0.44119  -0.44118  -0.44117  -0.39452  -0.39451
 Alpha  occ. eigenvalues --   -0.35854  -0.35853  -0.35852  -0.31477  -0.31475
 Alpha  occ. eigenvalues --   -0.31474
 Alpha virt. eigenvalues --    0.07583   0.13963   0.13964   0.13966   0.16457
 Alpha virt. eigenvalues --    0.16458   0.16458   0.17948   0.17948   0.21857
 Alpha virt. eigenvalues --    0.22624   0.22625   0.22626   0.25182   0.25183

 Mulliken atomic charges:
              1
     1  C   -0.435381
     2  C    0.103504
     3  C   -0.435382
     4  C   -0.435452
     5  C   -0.435353
     6  H    0.136513
     7  H    0.136496
     8  H    0.136497
     9  H    0.136508
    10  H    0.136504
    11  H    0.136501
    12  H    0.136516
    13  H    0.136512
    14  H    0.136516
    15  H    0.136504
    16  H    0.136502
    17  H    0.136495
 Sum of Mulliken atomic charges =   0.00000

 Dipole moment (field-independent basis, Debye):
    X=              0.0000    Y=              0.0000    Z=              0.0001  Tot=              0.0001
 Quadrupole moment (field-independent basis, Debye-Ang):
   XX=            -35.0496   YY=            -35.0500   ZZ=            -35.0497
   XY=              0.0000   XZ=              0.0001   YZ=             -0.0003

 Normal termination of Gaussian 09 at Thu Jan  4 15:11:03 2018.
