 Gaussian 09, Revision B.01,
 Gaussian 09:  EM64L-G09RevB.01 12-Aug-2010

 -----------------------
 #B3LYP/6-31G* fopt test
 -----------------------

 -----------------------------------
 NeoConformation/tert-butylamine.xyz
 -----------------------------------
 Symbolic Z-matrix:
 Charge =  0 Multiplicity = 1

 SCF Done:  E(RB3LYP) =  -213.801401874     A.U. after   13 cycles
 SCF Done:  E(RB3LYP) =  -213.803025700     A.U. after   13 cycles
 SCF Done:  E(RB3LYP) =  -213.803105958     A.U. after    9 cycles
 SCF Done:  E(RB3LYP) =  -213.803110609     A.U. after    8 cycles
 Optimization completed.
    -- Stationary point found.

                         Standard orientation:
 ---------------------------------------------------------------------
 Center     Atomic      Atomic             Coordinates (Angstroms)
 Number     Number       Type             X           Y           Z
 ---------------------------------------------------------------------
      1          6           0        0.000000   -0.005064    0.015838
      2          6           0        0.000070    1.360023   -0.705185
      3          6           0        1.258758   -0.798894   -0.366607
      4          6           0       -1.258817   -0.798785   -0.366641
      5          7           0       -0.000013    0.134141    1.487738
      6          1           0       -0.887062    1.945377   -0.430934
      7          1           0        0.000073    1.246584   -1.796702
      8          1           0        0.887250    1.945302   -0.430924
      9          1           0        1.270365   -1.765324    0.147285
     10          1           0        2.167893   -0.253193   -0.082000
     11          1           0        1.301197   -0.973950   -1.447598
     12          1           0       -1.270555   -1.765180    0.147314
     13          1           0       -1.301199   -0.973908   -1.447622
     14          1           0       -2.167915   -0.252968   -0.082136
     15          1           0       -0.813060    0.682307    1.772350
     16          1           0        0.813040    0.682287    1.772371
 ---------------------------------------------------------------------

 The electronic state is 1-A.
 Alpha  occ. eigenvalues --  -14.30428 -10.21604 -10.17073 -10.16747 -10.16746
 Alpha  occ. eigenvalues --   -0.88276  -0.75550  -0.68143  -0.68104  -0.54410
 Alpha  occ. eigenvalues --   -0.47723  -0.45641  -0.43367  -0.41296  -0.38857
 Alpha  occ. eigenvalues --   -0.37258  -0.36036  -0.35306  -0.32846  -0.32213
 Alpha  occ. eigenvalues --   -0.22942
 Alpha virt. eigenvalues --    0.06843   0.12771   0.13023   0.13983   0.15883
 Alpha virt. eigenvalues --    0.16478   0.16876   0.18164   0.19934   0.21859
 Alpha virt. eigenvalues --    0.22147   0.22640   0.25312   0.25365   0.26849

 Mulliken atomic charges:
              1
     1  C    0.187351
     2  C   -0.439547
     3  C   -0.430691
     4  C   -0.430696
     5  N   -0.706160
     6  H    0.131528
     7  H    0.138116
     8  H    0.131528
     9  H    0.155831
    10  H    0.130230
    11  H    0.137167
    12  H    0.155832
    13  H    0.137169
    14  H    0.130230
    15  H    0.286055
    16  H    0.286055
 Sum of Mulliken atomic charges =   0.00000

 Dipole moment (field-independent basis, Debye):
    X=              0.0000    Y=              1.1869    Z=             -0.4737  Tot=              1.2780
 Quadrupole moment (field-independent basis, Debye-Ang):
   XX=            -32.8528   YY=            -33.8887   ZZ=            -34.9841
   XY=              0.0000   XZ=              0.0001   YZ=              3.0425

 Normal termination of Gaussian 09 at Thu Jan  4 15:11:23 2018.
