 Gaussian 09, Revision B.01,
 Gaussian 09:  EM64L-G09RevB.01 12-Aug-2010

 -----------------------
 #B3LYP/6-31G* fopt test
 -----------------------

 -------------------------
 Sugars/Base-Fructuose.xyz
 -------------------------
 Symbolic Z-matrix:
 Charge =  0 Multiplicity = 1

 SCF Done:  E(RB3LYP) =  -687.095414536     A.U. after   14 cycles
 SCF Done:  E(RB3LYP) =  -687.106017788     A.U. after   13 cycles
 SCF Done:  E(RB3LYP) =  -687.109878773     A.U. after   12 cycles
 SCF Done:  E(RB3LYP) =  -687.110378245     A.U. after   13 cycles
 SCF Done:  E(RB3LYP) =  -687.112701816     A.U. after   13 cycles
 SCF Done:  E(RB3LYP) =  -687.113239218     A.U. after   13 cycles
 SCF Done:  E(RB3LYP) =  -687.115338471     A.U. after   12 cycles
 SCF Done:  E(RB3LYP) =  -687.117523490     A.U. after   13 cycles
 SCF Done:  E(RB3LYP) =  -687.120373967     A.U. after   15 cycles
 SCF Done:  E(RB3LYP) =  -687.122466562     A.U. after   15 cycles
 SCF Done:  E(RB3LYP) =  -687.128969197     A.U. after   12 cycles
 SCF Done:  E(RB3LYP) =  -687.129017634     A.U. after   10 cycles
 SCF Done:  E(RB3LYP) =  -687.129033593     A.U. after   11 cycles
 SCF Done:  E(RB3LYP) =  -687.129043081     A.U. after   10 cycles
 SCF Done:  E(RB3LYP) =  -687.129052214     A.U. after   10 cycles
 SCF Done:  E(RB3LYP) =  -687.129057360     A.U. after    9 cycles
 SCF Done:  E(RB3LYP) =  -687.129058910     A.U. after    9 cycles
 SCF Done:  E(RB3LYP) =  -687.129060206     A.U. after    9 cycles
 SCF Done:  E(RB3LYP) =  -687.129060633     A.U. after    9 cycles
 SCF Done:  E(RB3LYP) =  -687.129060839     A.U. after    7 cycles
 Optimization completed.
    -- Stationary point found.

                         Standard orientation:
 ---------------------------------------------------------------------
 Center     Atomic      Atomic             Coordinates (Angstroms)
 Number     Number       Type             X           Y           Z
 ---------------------------------------------------------------------
      1          6           0       -3.164206    0.398366    0.001212
      2          8           0       -4.305635   -0.407416    0.162583
      3          1           0       -5.053894    0.180239    0.344340
      4          1           0       -2.928085    0.988490    0.905280
      5          1           0       -3.256855    1.127066   -0.821245
      6          6           0       -1.962222   -0.486285   -0.288193
      7          8           0       -2.015081   -1.696841   -0.303197
      8          6           0       -0.632834    0.225542   -0.604948
      9          6           0        0.521115   -0.336657    0.258786
     10          6           0        1.905906   -0.006426   -0.340331
     11          6           0        3.018045   -0.840225    0.281001
     12          1           0        2.718662   -1.900373    0.244168
     13          1           0        3.128384   -0.558637    1.339205
     14          8           0        4.206368   -0.609798   -0.457131
     15          1           0        4.938645   -1.031604    0.016241
     16          1           0       -0.430800    0.027158   -1.664766
     17          8           0       -0.696446    1.644896   -0.462821
     18          1           0       -0.627375    1.785601    0.501456
     19          1           0        0.380542   -1.418214    0.351932
     20          8           0        0.421491    0.255801    1.557719
     21          1           0        1.136639    0.923954    1.572308
     22          1           0        1.902418   -0.204878   -1.421718
     23          8           0        2.197853    1.371492   -0.081645
     24          1           0        1.508496    1.890237   -0.536415
 ---------------------------------------------------------------------

 The electronic state is 1-A.
 Alpha  occ. eigenvalues --  -19.17646 -19.16417 -19.16375 -19.15379 -19.14979
 Alpha  occ. eigenvalues --  -19.14754 -10.28019 -10.25675 -10.25198 -10.25159
 Alpha  occ. eigenvalues --  -10.24839 -10.24140  -1.06915  -1.05271  -1.03864
 Alpha  occ. eigenvalues --   -1.02402  -1.02376  -1.01440  -0.78773  -0.75177
 Alpha  occ. eigenvalues --   -0.72204  -0.65040  -0.60611  -0.56374  -0.53728
 Alpha  occ. eigenvalues --   -0.53596  -0.53092  -0.51484  -0.49331  -0.48247
 Alpha  occ. eigenvalues --   -0.47091  -0.45054  -0.43812  -0.43047  -0.42848
 Alpha  occ. eigenvalues --   -0.41866  -0.37993  -0.37115  -0.35539  -0.35340
 Alpha  occ. eigenvalues --   -0.35070  -0.33818  -0.31989  -0.29866  -0.28970
 Alpha  occ. eigenvalues --   -0.27925  -0.27261  -0.24467
 Alpha virt. eigenvalues --   -0.02328   0.04627   0.06385   0.06936   0.09175
 Alpha virt. eigenvalues --    0.11493   0.11656   0.12096   0.13693   0.14668
 Alpha virt. eigenvalues --    0.15763   0.16864   0.18258   0.18643   0.19866

 Mulliken atomic charges:
              1
     1  C   -0.111568
     2  O   -0.590608
     3  H    0.399346
     4  H    0.144222
     5  H    0.160729
     6  C    0.431979
     7  O   -0.431484
     8  C    0.030879
     9  C    0.093898
    10  C    0.069778
    11  C   -0.020641
    12  H    0.128890
    13  H    0.132326
    14  O   -0.612280
    15  H    0.397439
    16  H    0.176061
    17  O   -0.643383
    18  H    0.399765
    19  H    0.172192
    20  O   -0.657949
    21  H    0.409750
    22  H    0.147866
    23  O   -0.636007
    24  H    0.408803
 Sum of Mulliken atomic charges =   0.00000

 Dipole moment (field-independent basis, Debye):
    X=              0.4160    Y=              2.1319    Z=              0.7032  Tot=              2.2831
 Quadrupole moment (field-independent basis, Debye-Ang):
   XX=            -62.7408   YY=            -73.3006   ZZ=            -70.6561
   XY=            -18.2132   XZ=              3.8362   YZ=              1.5586

 Normal termination of Gaussian 09 at Thu Jan  4 15:37:47 2018.
