 Gaussian 09, Revision B.01,
 Gaussian 09:  EM64L-G09RevB.01 12-Aug-2010

 -----------------------
 #B3LYP/6-31G* fopt test
 -----------------------

 ------------------------
 Sugars/D_-_Fructuose.xyz
 ------------------------
 Symbolic Z-matrix:
 Charge =  0 Multiplicity = 1

 SCF Done:  E(RB3LYP) =  -687.107316055     A.U. after   14 cycles
 SCF Done:  E(RB3LYP) =  -687.118154975     A.U. after   15 cycles
 SCF Done:  E(RB3LYP) =  -687.121703270     A.U. after   15 cycles
 SCF Done:  E(RB3LYP) =  -687.124585974     A.U. after   15 cycles
 SCF Done:  E(RB3LYP) =  -687.125608742     A.U. after   12 cycles
 SCF Done:  E(RB3LYP) =  -687.126787933     A.U. after   13 cycles
 SCF Done:  E(RB3LYP) =  -687.127516321     A.U. after   15 cycles
 SCF Done:  E(RB3LYP) =  -687.128021255     A.U. after   15 cycles
 SCF Done:  E(RB3LYP) =  -687.128449231     A.U. after   13 cycles
 SCF Done:  E(RB3LYP) =  -687.129117932     A.U. after   12 cycles
 SCF Done:  E(RB3LYP) =  -687.135852590     A.U. after   10 cycles
 SCF Done:  E(RB3LYP) =  -687.135862507     A.U. after   10 cycles
 SCF Done:  E(RB3LYP) =  -687.135869724     A.U. after    9 cycles
 SCF Done:  E(RB3LYP) =  -687.135872800     A.U. after    9 cycles
 SCF Done:  E(RB3LYP) =  -687.135874084     A.U. after    8 cycles
 SCF Done:  E(RB3LYP) =  -687.135874430     A.U. after    8 cycles
 SCF Done:  E(RB3LYP) =  -687.135874745     A.U. after    8 cycles
 SCF Done:  E(RB3LYP) =  -687.135875163     A.U. after    8 cycles
 SCF Done:  E(RB3LYP) =  -687.135875480     A.U. after    8 cycles
 SCF Done:  E(RB3LYP) =  -687.135875537     A.U. after    7 cycles
 Optimization completed.
    -- Stationary point found.

                         Standard orientation:
 ---------------------------------------------------------------------
 Center     Atomic      Atomic             Coordinates (Angstroms)
 Number     Number       Type             X           Y           Z
 ---------------------------------------------------------------------
      1          8           0       -0.133025   -0.504029   -1.506708
      2          8           0       -2.018933    0.229531    1.531203
      3          8           0        0.384420    2.011667   -0.172572
      4          8           0       -4.159651   -0.233920   -0.054994
      5          8           0        2.761986    0.981069   -0.601521
      6          8           0        3.915544   -1.205515    0.338257
      7          6           0       -0.413327   -0.299547   -0.122498
      8          6           0       -1.848760    0.181034    0.120339
      9          6           0        0.606218    0.741884    0.386198
     10          6           0       -2.899380   -0.747377   -0.485534
     11          6           0        2.028877    0.279244    0.078152
     12          6           0        2.547625   -1.050447    0.600409
     13          1           0       -0.271256   -1.228841    0.452714
     14          1           0       -1.962647    1.177610   -0.327515
     15          1           0        0.482875    0.804056    1.477107
     16          1           0       -2.826476   -0.748710   -1.582916
     17          1           0       -2.745525   -1.773418   -0.112847
     18          1           0       -0.572500   -1.317461   -1.795053
     19          1           0        2.354409   -1.118693    1.681749
     20          1           0        1.954198   -1.848096    0.120542
     21          1           0       -2.968184    0.386862    1.672222
     22          1           0        1.121522    2.162313   -0.794094
     23          1           0       -4.847089   -0.883473   -0.262525
     24          1           0        4.150430   -0.471321   -0.261096
 ---------------------------------------------------------------------

 The electronic state is 1-A.
 Alpha  occ. eigenvalues --  -19.17317 -19.16964 -19.16854 -19.14663 -19.14382
 Alpha  occ. eigenvalues --  -19.14371 -10.29496 -10.25562 -10.25169 -10.24994
 Alpha  occ. eigenvalues --  -10.24903 -10.23920  -1.08068  -1.05008  -1.04142
 Alpha  occ. eigenvalues --   -1.02289  -1.01482  -1.01108  -0.78985  -0.75592
 Alpha  occ. eigenvalues --   -0.71298  -0.65525  -0.59640  -0.56994  -0.56159
 Alpha  occ. eigenvalues --   -0.53818  -0.53008  -0.50040  -0.49399  -0.48226
 Alpha  occ. eigenvalues --   -0.47974  -0.45233  -0.44073  -0.42808  -0.42478
 Alpha  occ. eigenvalues --   -0.41062  -0.38167  -0.37040  -0.36771  -0.35967
 Alpha  occ. eigenvalues --   -0.34448  -0.33780  -0.29814  -0.29334  -0.28372
 Alpha  occ. eigenvalues --   -0.27452  -0.27208  -0.26583
 Alpha virt. eigenvalues --   -0.03517   0.03632   0.05150   0.08758   0.09916
 Alpha virt. eigenvalues --    0.11107   0.12569   0.13524   0.14493   0.15224
 Alpha virt. eigenvalues --    0.15833   0.16830   0.17036   0.18225   0.20142

 Mulliken atomic charges:
              1
     1  O   -0.633364
     2  O   -0.651786
     3  O   -0.635620
     4  O   -0.631526
     5  O   -0.473169
     6  O   -0.625974
     7  C    0.097871
     8  C    0.133610
     9  C    0.065198
    10  C   -0.066511
    11  C    0.403792
    12  C   -0.071993
    13  H    0.124665
    14  H    0.166653
    15  H    0.179950
    16  H    0.128692
    17  H    0.120508
    18  H    0.402383
    19  H    0.161788
    20  H    0.159164
    21  H    0.413389
    22  H    0.416154
    23  H    0.404395
    24  H    0.411730
 Sum of Mulliken atomic charges =   0.00000

 Dipole moment (field-independent basis, Debye):
    X=             -3.9074    Y=             -3.2596    Z=             -0.7477  Tot=              5.1431
 Quadrupole moment (field-independent basis, Debye-Ang):
   XX=            -68.8566   YY=            -71.1625   ZZ=            -70.3190
   XY=             11.3197   XZ=              2.5417   YZ=              3.1190

 Normal termination of Gaussian 09 at Thu Jan  4 15:46:01 2018.
