 Gaussian 09, Revision B.01,
 Gaussian 09:  EM64L-G09RevB.01 12-Aug-2010

 -----------------------
 #B3LYP/6-31G* fopt test
 -----------------------

 --------------------------
 Sugars/R-R-R-Fructuose.xyz
 --------------------------
 Symbolic Z-matrix:
 Charge =  0 Multiplicity = 1

 SCF Done:  E(RB3LYP) =  -687.083727565     A.U. after   14 cycles
 SCF Done:  E(RB3LYP) =  -687.092752223     A.U. after   15 cycles
 SCF Done:  E(RB3LYP) =  -687.096703464     A.U. after   13 cycles
 SCF Done:  E(RB3LYP) =  -687.098004859     A.U. after   12 cycles
 SCF Done:  E(RB3LYP) =  -687.100519856     A.U. after   13 cycles
 SCF Done:  E(RB3LYP) =  -687.103670576     A.U. after   13 cycles
 SCF Done:  E(RB3LYP) =  -687.108768782     A.U. after   15 cycles
 SCF Done:  E(RB3LYP) =  -687.111301198     A.U. after   14 cycles
 SCF Done:  E(RB3LYP) =  -687.113000078     A.U. after   15 cycles
 SCF Done:  E(RB3LYP) =  -687.113664488     A.U. after   15 cycles
 SCF Done:  E(RB3LYP) =  -687.136616282     A.U. after   11 cycles
 SCF Done:  E(RB3LYP) =  -687.136646904     A.U. after   10 cycles
 SCF Done:  E(RB3LYP) =  -687.136668502     A.U. after   10 cycles
 SCF Done:  E(RB3LYP) =  -687.136681840     A.U. after   10 cycles
 SCF Done:  E(RB3LYP) =  -687.136686220     A.U. after    9 cycles
 SCF Done:  E(RB3LYP) =  -687.136687467     A.U. after    8 cycles
 SCF Done:  E(RB3LYP) =  -687.136687878     A.U. after    8 cycles
 SCF Done:  E(RB3LYP) =  -687.136688164     A.U. after    8 cycles
 SCF Done:  E(RB3LYP) =  -687.136688328     A.U. after    7 cycles
 SCF Done:  E(RB3LYP) =  -687.136688423     A.U. after    7 cycles
 Optimization completed.
    -- Stationary point found.

                         Standard orientation:
 ---------------------------------------------------------------------
 Center     Atomic      Atomic             Coordinates (Angstroms)
 Number     Number       Type             X           Y           Z
 ---------------------------------------------------------------------
      1          6           0       -2.639686   -0.842042    0.464738
      2          8           0       -4.032765   -0.786353    0.260555
      3          1           0       -4.390434   -1.660953    0.473430
      4          1           0       -2.149065   -1.663857   -0.079041
      5          1           0       -2.366660   -0.983488    1.525104
      6          6           0       -2.009662    0.453847   -0.000404
      7          8           0       -2.642533    1.339233   -0.545272
      8          6           0       -0.503141    0.681961    0.240205
      9          6           0        0.366366   -0.354299   -0.499062
     10          6           0        1.857640    0.022492   -0.540596
     11          6           0        2.460357    0.340090    0.827158
     12          1           0        2.167051   -0.436732    1.546962
     13          1           0        2.105709    1.316580    1.180338
     14          8           0        3.879615    0.343451    0.629383
     15          1           0        4.311468    0.348237    1.495870
     16          1           0       -0.313362    0.567940    1.319968
     17          8           0       -0.168214    1.980482   -0.182902
     18          1           0       -0.999014    2.346210   -0.554455
     19          1           0        0.026610   -0.424332   -1.545502
     20          8           0        0.212909   -1.607442    0.155491
     21          1           0        0.954992   -2.144045   -0.183282
     22          1           0        1.995829    0.885041   -1.203150
     23          8           0        2.504569   -1.133424   -1.081964
     24          1           0        3.436978   -1.050476   -0.810793
 ---------------------------------------------------------------------

 The electronic state is 1-A.
 Alpha  occ. eigenvalues --  -19.16696 -19.16107 -19.15356 -19.15297 -19.15274
 Alpha  occ. eigenvalues --  -19.14572 -10.28684 -10.25069 -10.24740 -10.24707
 Alpha  occ. eigenvalues --  -10.24017 -10.23985  -1.07077  -1.05114  -1.03228
 Alpha  occ. eigenvalues --   -1.02815  -1.01432  -1.00709  -0.78370  -0.75207
 Alpha  occ. eigenvalues --   -0.70663  -0.65801  -0.58775  -0.56478  -0.54314
 Alpha  occ. eigenvalues --   -0.53343  -0.51849  -0.50482  -0.48797  -0.48050
 Alpha  occ. eigenvalues --   -0.47613  -0.45893  -0.44511  -0.42917  -0.42084
 Alpha  occ. eigenvalues --   -0.39777  -0.37647  -0.36972  -0.35980  -0.35435
 Alpha  occ. eigenvalues --   -0.34572  -0.33951  -0.29200  -0.28473  -0.28275
 Alpha  occ. eigenvalues --   -0.27834  -0.26752  -0.26567
 Alpha virt. eigenvalues --   -0.02774   0.04901   0.06180   0.08490   0.10036
 Alpha virt. eigenvalues --    0.11097   0.13200   0.13963   0.14910   0.15789
 Alpha virt. eigenvalues --    0.17415   0.17790   0.18114   0.19015   0.20128

 Mulliken atomic charges:
              1
     1  C   -0.112136
     2  O   -0.594882
     3  H    0.400221
     4  H    0.185548
     5  H    0.151107
     6  C    0.414614
     7  O   -0.443393
     8  C    0.069581
     9  C    0.100815
    10  C    0.130780
    11  C   -0.074372
    12  H    0.134698
    13  H    0.161233
    14  O   -0.642080
    15  H    0.405397
    16  H    0.146423
    17  O   -0.651535
    18  H    0.415563
    19  H    0.137709
    20  O   -0.656982
    21  H    0.416336
    22  H    0.155580
    23  O   -0.669763
    24  H    0.419537
 Sum of Mulliken atomic charges =   0.00000

 Dipole moment (field-independent basis, Debye):
    X=              2.1627    Y=             -2.6097    Z=              2.8495  Tot=              4.4280
 Quadrupole moment (field-independent basis, Debye-Ang):
   XX=            -69.1002   YY=            -69.7030   ZZ=            -66.8157
   XY=              7.7529   XZ=              3.6510   YZ=             -0.4808

 Normal termination of Gaussian 09 at Thu Jan  4 16:01:49 2018.
