 Gaussian 09, Revision B.01,
 Gaussian 09:  EM64L-G09RevB.01 12-Aug-2010

 -----------------------
 #B3LYP/6-31G* fopt test
 -----------------------

 --------------------------
 Sugars/R-S-R-Fructuose.xyz
 --------------------------
 Symbolic Z-matrix:
 Charge =  0 Multiplicity = 1

 SCF Done:  E(RB3LYP) =  -687.075273972     A.U. after   14 cycles
 SCF Done:  E(RB3LYP) =  -687.086799255     A.U. after   13 cycles
 SCF Done:  E(RB3LYP) =  -687.091625126     A.U. after   13 cycles
 SCF Done:  E(RB3LYP) =  -687.092365261     A.U. after   14 cycles
 SCF Done:  E(RB3LYP) =  -687.095462599     A.U. after   12 cycles
 SCF Done:  E(RB3LYP) =  -687.097896922     A.U. after   13 cycles
 SCF Done:  E(RB3LYP) =  -687.101044758     A.U. after   15 cycles
 SCF Done:  E(RB3LYP) =  -687.103368309     A.U. after   13 cycles
 SCF Done:  E(RB3LYP) =  -687.107165374     A.U. after   14 cycles
 SCF Done:  E(RB3LYP) =  -687.108624813     A.U. after   13 cycles
 SCF Done:  E(RB3LYP) =  -687.132824063     A.U. after   13 cycles
 SCF Done:  E(RB3LYP) =  -687.132889039     A.U. after   11 cycles
 SCF Done:  E(RB3LYP) =  -687.132948474     A.U. after   12 cycles
 SCF Done:  E(RB3LYP) =  -687.132988354     A.U. after   11 cycles
 SCF Done:  E(RB3LYP) =  -687.132999075     A.U. after    9 cycles
 SCF Done:  E(RB3LYP) =  -687.133006550     A.U. after   10 cycles
 SCF Done:  E(RB3LYP) =  -687.133007891     A.U. after    8 cycles
 SCF Done:  E(RB3LYP) =  -687.133008780     A.U. after    8 cycles
 SCF Done:  E(RB3LYP) =  -687.133009163     A.U. after    8 cycles
 SCF Done:  E(RB3LYP) =  -687.133009264     A.U. after    8 cycles
 Optimization completed.
    -- Stationary point found.

                         Standard orientation:
 ---------------------------------------------------------------------
 Center     Atomic      Atomic             Coordinates (Angstroms)
 Number     Number       Type             X           Y           Z
 ---------------------------------------------------------------------
      1          6           0        3.208378    0.614082   -0.142826
      2          8           0        4.373929   -0.177241   -0.124621
      3          1           0        5.120846    0.411254    0.058863
      4          1           0        3.170773    1.303072   -1.004876
      5          1           0        3.091945    1.239625    0.755779
      6          6           0        1.982750   -0.281123   -0.200390
      7          8           0        2.047150   -1.490836   -0.086247
      8          6           0        0.642745    0.447389   -0.392436
      9          6           0       -0.538831   -0.529940   -0.202206
     10          6           0       -1.891447    0.141081   -0.452702
     11          6           0       -3.069689   -0.774464   -0.135488
     12          1           0       -2.988566   -1.112749    0.902540
     13          1           0       -3.066188   -1.651168   -0.799189
     14          8           0       -4.241923    0.025630   -0.339025
     15          1           0       -4.974722   -0.378277    0.147777
     16          1           0        0.613268    0.793205   -1.446602
     17          8           0        0.665742    1.546218    0.499623
     18          1           0       -0.262472    1.830048    0.614544
     19          1           0       -0.426804   -1.302301   -0.981204
     20          8           0       -0.544979   -1.122482    1.084316
     21          1           0        0.266789   -1.657553    1.122223
     22          1           0       -1.938257    0.413113   -1.520535
     23          8           0       -2.007167    1.324905    0.339467
     24          1           0       -2.952061    1.560038    0.318862
 ---------------------------------------------------------------------

 The electronic state is 1-A.
 Alpha  occ. eigenvalues --  -19.16708 -19.15778 -19.15259 -19.14948 -19.13961
 Alpha  occ. eigenvalues --  -19.13646 -10.28152 -10.24722 -10.24478 -10.24339
 Alpha  occ. eigenvalues --  -10.24134 -10.24001  -1.05918  -1.04933  -1.02802
 Alpha  occ. eigenvalues --   -1.02025  -1.01128  -1.00697  -0.78143  -0.74954
 Alpha  occ. eigenvalues --   -0.71264  -0.65497  -0.58672  -0.54931  -0.53455
 Alpha  occ. eigenvalues --   -0.52732  -0.52092  -0.51507  -0.48978  -0.47438
 Alpha  occ. eigenvalues --   -0.46133  -0.45479  -0.43764  -0.42681  -0.41940
 Alpha  occ. eigenvalues --   -0.40485  -0.37679  -0.36758  -0.36343  -0.35012
 Alpha  occ. eigenvalues --   -0.34183  -0.32910  -0.29244  -0.28516  -0.28124
 Alpha  occ. eigenvalues --   -0.27438  -0.25630  -0.24792
 Alpha virt. eigenvalues --   -0.02457   0.05077   0.06598   0.08144   0.11219
 Alpha virt. eigenvalues --    0.12405   0.12722   0.13957   0.15607   0.16038
 Alpha virt. eigenvalues --    0.16544   0.17260   0.18428   0.18822   0.20256

 Mulliken atomic charges:
              1
     1  C   -0.110377
     2  O   -0.596870
     3  H    0.399208
     4  H    0.145083
     5  H    0.184581
     6  C    0.437336
     7  O   -0.450874
     8  C    0.067167
     9  C    0.102119
    10  C    0.133915
    11  C   -0.064318
    12  H    0.171439
    13  H    0.132080
    14  O   -0.640495
    15  H    0.406407
    16  H    0.124552
    17  O   -0.664259
    18  H    0.441649
    19  H    0.128091
    20  O   -0.642404
    21  H    0.416133
    22  H    0.129800
    23  O   -0.669127
    24  H    0.419164
 Sum of Mulliken atomic charges =   0.00000

 Dipole moment (field-independent basis, Debye):
    X=             -2.1511    Y=              1.2506    Z=             -0.9294  Tot=              2.6561
 Quadrupole moment (field-independent basis, Debye-Ang):
   XX=            -52.1028   YY=            -72.1501   ZZ=            -70.8033
   XY=             12.6555   XZ=             -2.0445   YZ=             -0.7953

 Normal termination of Gaussian 09 at Thu Jan  4 16:26:02 2018.
