 Gaussian 09, Revision B.01,
 Gaussian 09:  EM64L-G09RevB.01 12-Aug-2010

 -----------------------
 #B3LYP/6-31G* fopt test
 -----------------------

 --------------------------
 Sugars/R-S-S-Fructuose.xyz
 --------------------------
 Symbolic Z-matrix:
 Charge =  0 Multiplicity = 1

 SCF Done:  E(RB3LYP) =  -687.088277677     A.U. after   14 cycles
 SCF Done:  E(RB3LYP) =  -687.098324367     A.U. after   14 cycles
 SCF Done:  E(RB3LYP) =  -687.102294284     A.U. after   14 cycles
 SCF Done:  E(RB3LYP) =  -687.104241245     A.U. after   13 cycles
 SCF Done:  E(RB3LYP) =  -687.107698989     A.U. after   12 cycles
 SCF Done:  E(RB3LYP) =  -687.110689264     A.U. after   13 cycles
 SCF Done:  E(RB3LYP) =  -687.114302259     A.U. after   15 cycles
 SCF Done:  E(RB3LYP) =  -687.115571163     A.U. after   11 cycles
 SCF Done:  E(RB3LYP) =  -687.116459411     A.U. after   12 cycles
 SCF Done:  E(RB3LYP) =  -687.116683061     A.U. after   11 cycles
 SCF Done:  E(RB3LYP) =  -687.133946438     A.U. after   12 cycles
 SCF Done:  E(RB3LYP) =  -687.134019191     A.U. after   11 cycles
 SCF Done:  E(RB3LYP) =  -687.134044142     A.U. after   11 cycles
 SCF Done:  E(RB3LYP) =  -687.134050043     A.U. after   10 cycles
 SCF Done:  E(RB3LYP) =  -687.134053589     A.U. after    9 cycles
 SCF Done:  E(RB3LYP) =  -687.134054454     A.U. after    8 cycles
 SCF Done:  E(RB3LYP) =  -687.134054834     A.U. after    8 cycles
 SCF Done:  E(RB3LYP) =  -687.134055092     A.U. after    7 cycles
 SCF Done:  E(RB3LYP) =  -687.134055260     A.U. after    7 cycles
 SCF Done:  E(RB3LYP) =  -687.134055306     A.U. after    7 cycles
 Optimization completed.
    -- Stationary point found.

                         Standard orientation:
 ---------------------------------------------------------------------
 Center     Atomic      Atomic             Coordinates (Angstroms)
 Number     Number       Type             X           Y           Z
 ---------------------------------------------------------------------
      1          6           0        3.107891   -0.663433   -0.209213
      2          8           0        4.323582    0.040307   -0.105366
      3          1           0        5.010758   -0.508645   -0.510805
      4          1           0        3.092834   -1.592789    0.385024
      5          1           0        2.863854   -0.962036   -1.241784
      6          6           0        1.968688    0.221691    0.262519
      7          8           0        2.123119    1.395271    0.550151
      8          6           0        0.602764   -0.451863    0.385544
      9          6           0       -0.561791    0.575825    0.266973
     10          6           0       -1.851312   -0.128897   -0.159780
     11          6           0       -3.095356    0.718096    0.064636
     12          1           0       -3.051297    1.619772   -0.558275
     13          1           0       -3.152859    1.015799    1.122523
     14          8           0       -4.199251   -0.123638   -0.287181
     15          1           0       -5.018943    0.309405   -0.007930
     16          1           0        0.565354   -0.851178    1.414874
     17          8           0        0.541948   -1.519947   -0.546116
     18          1           0       -0.269186   -2.009219   -0.312078
     19          1           0       -0.700082    1.017414    1.267144
     20          8           0       -0.342708    1.589144   -0.698307
     21          1           0        0.445761    2.073239   -0.394230
     22          1           0       -1.765360   -0.348586   -1.232984
     23          8           0       -1.966552   -1.350263    0.581438
     24          1           0       -2.887238   -1.638687    0.447507
 ---------------------------------------------------------------------

 The electronic state is 1-A.
 Alpha  occ. eigenvalues --  -19.16595 -19.15997 -19.15043 -19.14881 -19.14755
 Alpha  occ. eigenvalues --  -19.13897 -10.28215 -10.24505 -10.24154 -10.24115
 Alpha  occ. eigenvalues --  -10.24095 -10.24055  -1.05856  -1.04831  -1.02905
 Alpha  occ. eigenvalues --   -1.02038  -1.01413  -1.01146  -0.77597  -0.75052
 Alpha  occ. eigenvalues --   -0.71211  -0.65626  -0.58599  -0.55028  -0.53622
 Alpha  occ. eigenvalues --   -0.52807  -0.51663  -0.50479  -0.49473  -0.48073
 Alpha  occ. eigenvalues --   -0.46223  -0.45314  -0.44133  -0.43171  -0.40763
 Alpha  occ. eigenvalues --   -0.39587  -0.38015  -0.36779  -0.35731  -0.35456
 Alpha  occ. eigenvalues --   -0.34425  -0.33245  -0.29328  -0.28930  -0.28262
 Alpha  occ. eigenvalues --   -0.27371  -0.25940  -0.24820
 Alpha virt. eigenvalues --   -0.02450   0.04758   0.06806   0.09182   0.09475
 Alpha virt. eigenvalues --    0.12749   0.13379   0.13851   0.15158   0.15605
 Alpha virt. eigenvalues --    0.16785   0.17383   0.17815   0.18645   0.20564

 Mulliken atomic charges:
              1
     1  C   -0.108111
     2  O   -0.596321
     3  H    0.399030
     4  H    0.151674
     5  H    0.176391
     6  C    0.434112
     7  O   -0.460280
     8  C    0.047847
     9  C    0.123651
    10  C    0.114172
    11  C   -0.057522
    12  H    0.160850
    13  H    0.129229
    14  O   -0.640410
    15  H    0.405106
    16  H    0.157371
    17  O   -0.653868
    18  H    0.423088
    19  H    0.120449
    20  O   -0.651944
    21  H    0.421726
    22  H    0.157176
    23  O   -0.673002
    24  H    0.419585
 Sum of Mulliken atomic charges =   0.00000

 Dipole moment (field-independent basis, Debye):
    X=             -2.5172    Y=             -1.8865    Z=              0.7984  Tot=              3.2454
 Quadrupole moment (field-independent basis, Debye-Ang):
   XX=            -52.2476   YY=            -70.5711   ZZ=            -71.8201
   XY=            -12.1456   XZ=             -7.7718   YZ=              0.3230

 Normal termination of Gaussian 09 at Thu Jan  4 16:39:35 2018.
