 Gaussian 09, Revision B.01,
 Gaussian 09:  EM64L-G09RevB.01 12-Aug-2010

 -----------------------
 #B3LYP/6-31G* fopt test
 -----------------------

 --------------------------
 Sugars/S-S-R-Fructuose.xyz
 --------------------------
 Symbolic Z-matrix:
 Charge =  0 Multiplicity = 1

 SCF Done:  E(RB3LYP) =  -687.087588102     A.U. after   14 cycles
 SCF Done:  E(RB3LYP) =  -687.098367620     A.U. after   14 cycles
 SCF Done:  E(RB3LYP) =  -687.102355884     A.U. after   13 cycles
 SCF Done:  E(RB3LYP) =  -687.103982426     A.U. after   13 cycles
 SCF Done:  E(RB3LYP) =  -687.107655058     A.U. after   12 cycles
 SCF Done:  E(RB3LYP) =  -687.110526063     A.U. after   13 cycles
 SCF Done:  E(RB3LYP) =  -687.115010151     A.U. after   14 cycles
 SCF Done:  E(RB3LYP) =  -687.117188682     A.U. after   13 cycles
 SCF Done:  E(RB3LYP) =  -687.120726545     A.U. after   14 cycles
 SCF Done:  E(RB3LYP) =  -687.122741880     A.U. after   12 cycles
 SCF Done:  E(RB3LYP) =  -687.137140550     A.U. after   13 cycles
 SCF Done:  E(RB3LYP) =  -687.137792093     A.U. after   12 cycles
 SCF Done:  E(RB3LYP) =  -687.136994742     A.U. after   12 cycles
 SCF Done:  E(RB3LYP) =  -687.137920002     A.U. after   12 cycles
 SCF Done:  E(RB3LYP) =  -687.138010116     A.U. after   11 cycles
 SCF Done:  E(RB3LYP) =  -687.138047131     A.U. after   11 cycles
 SCF Done:  E(RB3LYP) =  -687.138059850     A.U. after   10 cycles
 SCF Done:  E(RB3LYP) =  -687.138061847     A.U. after   10 cycles
 SCF Done:  E(RB3LYP) =  -687.138062300     A.U. after    8 cycles
 SCF Done:  E(RB3LYP) =  -687.138062448     A.U. after    7 cycles
 Optimization completed.
    -- Stationary point found.

                         Standard orientation:
 ---------------------------------------------------------------------
 Center     Atomic      Atomic             Coordinates (Angstroms)
 Number     Number       Type             X           Y           Z
 ---------------------------------------------------------------------
      1          6           0        2.679849   -0.949988    0.267963
      2          8           0        4.010791   -0.974096   -0.195539
      3          1           0        4.326981   -1.886089   -0.116191
      4          1           0        2.607514   -1.119376    1.357987
      5          1           0        2.033753   -1.705806   -0.203356
      6          6           0        2.063376    0.402504   -0.015654
      7          8           0        2.655322    1.288518   -0.605957
      8          6           0        0.631145    0.686467    0.471917
      9          6           0       -0.429026   -0.094969   -0.360193
     10          6           0       -1.848390    0.262909    0.109100
     11          6           0       -2.910771   -0.164162   -0.901379
     12          1           0       -2.724981   -1.202073   -1.209794
     13          1           0       -2.869864    0.482579   -1.789654
     14          8           0       -4.166582   -0.043138   -0.226220
     15          1           0       -4.837847   -0.523584   -0.732286
     16          1           0        0.530311    0.376941    1.522343
     17          8           0        0.383715    2.068042    0.356451
     18          1           0        1.140107    2.412436   -0.163542
     19          1           0       -0.304235    0.194566   -1.410986
     20          8           0       -0.252789   -1.502156   -0.275180
     21          1           0       -0.764245   -1.757572    0.518197
     22          1           0       -1.917857    1.342269    0.285799
     23          8           0       -2.045968   -0.457220    1.330324
     24          1           0       -3.012657   -0.510450    1.439933
 ---------------------------------------------------------------------

 The electronic state is 1-A.
 Alpha  occ. eigenvalues --  -19.17095 -19.15827 -19.15533 -19.15478 -19.15056
 Alpha  occ. eigenvalues --  -19.13992 -10.28145 -10.24830 -10.24579 -10.24336
 Alpha  occ. eigenvalues --  -10.24272 -10.24220  -1.06529  -1.05504  -1.03499
 Alpha  occ. eigenvalues --   -1.02475  -1.01138  -1.00799  -0.77976  -0.75365
 Alpha  occ. eigenvalues --   -0.70854  -0.64860  -0.60505  -0.55691  -0.54726
 Alpha  occ. eigenvalues --   -0.52900  -0.51470  -0.49305  -0.48730  -0.48551
 Alpha  occ. eigenvalues --   -0.47637  -0.46573  -0.44442  -0.43164  -0.41347
 Alpha  occ. eigenvalues --   -0.39663  -0.37262  -0.37060  -0.35819  -0.35353
 Alpha  occ. eigenvalues --   -0.34455  -0.33691  -0.30415  -0.29393  -0.28320
 Alpha  occ. eigenvalues --   -0.27414  -0.26550  -0.25465
 Alpha virt. eigenvalues --   -0.02371   0.04742   0.06493   0.08640   0.10510
 Alpha virt. eigenvalues --    0.11103   0.12446   0.14454   0.14943   0.15525
 Alpha virt. eigenvalues --    0.16469   0.17713   0.18268   0.18917   0.19933

 Mulliken atomic charges:
              1
     1  C   -0.125301
     2  O   -0.594960
     3  H    0.399117
     4  H    0.143745
     5  H    0.192592
     6  C    0.422376
     7  O   -0.447248
     8  C    0.056370
     9  C    0.103815
    10  C    0.110213
    11  C   -0.063828
    12  H    0.142182
    13  H    0.139577
    14  O   -0.636594
    15  H    0.406438
    16  H    0.151017
    17  O   -0.646311
    18  H    0.411614
    19  H    0.143836
    20  O   -0.647574
    21  H    0.412869
    22  H    0.175026
    23  O   -0.669611
    24  H    0.420640
 Sum of Mulliken atomic charges =   0.00000

 Dipole moment (field-independent basis, Debye):
    X=             -3.3038    Y=             -3.7054    Z=             -0.2927  Tot=              4.9730
 Quadrupole moment (field-independent basis, Debye-Ang):
   XX=            -64.0479   YY=            -69.1977   ZZ=            -69.2891
   XY=             -3.7922   XZ=              9.6430   YZ=             -2.4535

 Normal termination of Gaussian 09 at Thu Jan  4 17:11:50 2018.
