 Gaussian 09, Revision B.01,
 Gaussian 09:  EM64L-G09RevB.01 12-Aug-2010

 -----------------------
 #B3LYP/6-31G* fopt test
 -----------------------

 -----------------------------------
 IsomerC6H14/2,2-dimethyl-butane.xyz
 -----------------------------------
 Symbolic Z-matrix:
 Charge =  0 Multiplicity = 1

 SCF Done:  E(RB3LYP) =  -237.083081087     A.U. after   12 cycles
 SCF Done:  E(RB3LYP) =  -237.083663052     A.U. after   10 cycles
 SCF Done:  E(RB3LYP) =  -237.083686323     A.U. after    9 cycles
 SCF Done:  E(RB3LYP) =  -237.083690318     A.U. after    7 cycles
 Optimization completed.
    -- Stationary point found.

                         Standard orientation:
 ---------------------------------------------------------------------
 Center     Atomic      Atomic             Coordinates (Angstroms)
 Number     Number       Type             X           Y           Z
 ---------------------------------------------------------------------
      1          6           0        1.913369   -1.072000    0.000000
      2          6           0        1.173015    0.271187    0.000000
      3          6           0       -0.377824    0.218613    0.000000
      4          6           0       -0.901665    1.668381    0.000000
      5          6           0       -0.901665   -0.499721    1.258806
      6          6           0       -0.901665   -0.499721   -1.258806
      7          1           0       -1.998415    1.692712    0.000000
      8          1           0        2.997212   -0.908187    0.000000
      9          1           0       -0.527741   -0.020462    2.172474
     10          1           0       -0.527741   -0.020462   -2.172474
     11          1           0       -0.599282   -1.552675    1.284511
     12          1           0       -0.599282   -1.552675   -1.284511
     13          1           0       -1.997813   -0.472580    1.293782
     14          1           0       -1.997813   -0.472580   -1.293782
     15          1           0        1.675582   -1.672901    0.884898
     16          1           0        1.675582   -1.672901   -0.884898
     17          1           0        1.494436    0.850788    0.877554
     18          1           0        1.494436    0.850788   -0.877554
     19          1           0       -0.555280    2.215348    0.885901
     20          1           0       -0.555280    2.215348   -0.885901
 ---------------------------------------------------------------------

 The electronic state is 1-A'.
 Alpha  occ. eigenvalues --  -10.19074 -10.17435 -10.16949 -10.16704 -10.16703
 Alpha  occ. eigenvalues --  -10.16692  -0.81603  -0.73039  -0.67747  -0.67731
 Alpha  occ. eigenvalues --   -0.61747  -0.52183  -0.45193  -0.45095  -0.43038
 Alpha  occ. eigenvalues --   -0.41746  -0.39347  -0.37694  -0.37169  -0.35833
 Alpha  occ. eigenvalues --   -0.35239  -0.33903  -0.31107  -0.30921  -0.30317
 Alpha virt. eigenvalues --    0.07666   0.12426   0.13486   0.13726   0.14284
 Alpha virt. eigenvalues --    0.14613   0.16122   0.17678   0.17802   0.19652
 Alpha virt. eigenvalues --    0.20518   0.20868   0.22601   0.22714   0.24407

 Mulliken atomic charges:
              1
     1  C   -0.453816
     2  C   -0.240607
     3  C    0.107133
     4  C   -0.440524
     5  C   -0.444619
     6  C   -0.444619
     7  H    0.135826
     8  H    0.141533
     9  H    0.135854
    10  H    0.135854
    11  H    0.141119
    12  H    0.141119
    13  H    0.136714
    14  H    0.136714
    15  H    0.145103
    16  H    0.145103
    17  H    0.124736
    18  H    0.124736
    19  H    0.136322
    20  H    0.136322
 Sum of Mulliken atomic charges =   0.00000

 Dipole moment (field-independent basis, Debye):
    X=              0.0406    Y=             -0.0046    Z=              0.0000  Tot=              0.0409
 Quadrupole moment (field-independent basis, Debye-Ang):
   XX=            -41.5231   YY=            -41.9349   ZZ=            -41.5877
   XY=              0.1858   XZ=              0.0000   YZ=              0.0000

 Normal termination of Gaussian 09 at Fri Jan  5 13:28:39 2018.
