 Gaussian 09, Revision B.01,
 Gaussian 09:  EM64L-G09RevB.01 12-Aug-2010

 -----------------------
 #B3LYP/6-31G* fopt test
 -----------------------

 -----------------------------------
 IsomerC6H14/2,3-dimethyl-butane.xyz
 -----------------------------------
 Symbolic Z-matrix:
 Charge =  0 Multiplicity = 1

 SCF Done:  E(RB3LYP) =  -237.081881933     A.U. after   12 cycles
 SCF Done:  E(RB3LYP) =  -237.082461777     A.U. after    9 cycles
 SCF Done:  E(RB3LYP) =  -237.082484760     A.U. after    8 cycles
 SCF Done:  E(RB3LYP) =  -237.082490952     A.U. after    7 cycles
 Optimization completed.
    -- Stationary point found.

                         Standard orientation:
 ---------------------------------------------------------------------
 Center     Atomic      Atomic             Coordinates (Angstroms)
 Number     Number       Type             X           Y           Z
 ---------------------------------------------------------------------
      1          6           0       -0.232269    0.741196    0.000000
      2          6           0        0.232269   -0.741196    0.000000
      3          1           0       -1.334561    0.736113    0.000000
      4          1           0        1.334561   -0.736113    0.000000
      5          6           0        0.232269    1.500816    1.254491
      6          6           0        0.232269    1.500816   -1.254491
      7          6           0       -0.232269   -1.500816    1.254491
      8          6           0       -0.232269   -1.500816   -1.254491
      9          1           0        1.326982    1.481523    1.341999
     10          1           0        1.326982    1.481523   -1.341999
     11          1           0       -1.326982   -1.481523    1.341999
     12          1           0       -1.326982   -1.481523   -1.341999
     13          1           0       -0.074482    2.552192    1.204402
     14          1           0       -0.184408    1.082304    2.175581
     15          1           0       -0.074482    2.552192   -1.204402
     16          1           0       -0.184408    1.082304   -2.175581
     17          1           0        0.074482   -2.552192    1.204402
     18          1           0        0.184408   -1.082304    2.175581
     19          1           0        0.074482   -2.552192   -1.204402
     20          1           0        0.184408   -1.082304   -2.175581
 ---------------------------------------------------------------------

 The electronic state is 1-AG.
 Alpha  occ. eigenvalues --  -10.18291 -10.18272 -10.16766 -10.16766 -10.16765
 Alpha  occ. eigenvalues --  -10.16765  -0.81124  -0.74163  -0.68616  -0.66280
 Alpha  occ. eigenvalues --   -0.60285  -0.54324  -0.45145  -0.44966  -0.42547
 Alpha  occ. eigenvalues --   -0.41628  -0.38760  -0.38356  -0.37336  -0.35835
 Alpha  occ. eigenvalues --   -0.35054  -0.33589  -0.31396  -0.30732  -0.30200
 Alpha virt. eigenvalues --    0.08374   0.11735   0.12937   0.13414   0.14207
 Alpha virt. eigenvalues --    0.16118   0.16427   0.17880   0.17987   0.18730
 Alpha virt. eigenvalues --    0.18881   0.20573   0.20644   0.23764   0.23796

 Mulliken atomic charges:
              1
     1  C   -0.054899
     2  C   -0.054899
     3  H    0.114639
     4  H    0.114639
     5  C   -0.450157
     6  C   -0.450157
     7  C   -0.450157
     8  C   -0.450157
     9  H    0.137176
    10  H    0.137176
    11  H    0.137176
    12  H    0.137176
    13  H    0.138190
    14  H    0.144922
    15  H    0.138190
    16  H    0.144922
    17  H    0.138190
    18  H    0.144922
    19  H    0.138190
    20  H    0.144922
 Sum of Mulliken atomic charges =   0.00000

 Dipole moment (field-independent basis, Debye):
    X=              0.0000    Y=              0.0000    Z=              0.0000  Tot=              0.0000
 Quadrupole moment (field-independent basis, Debye-Ang):
   XX=            -41.2366   YY=            -41.7766   ZZ=            -42.0276
   XY=             -0.3323   XZ=              0.0000   YZ=              0.0000

 Normal termination of Gaussian 09 at Fri Jan  5 13:28:50 2018.
