 Gaussian 09, Revision B.01,
 Gaussian 09:  EM64L-G09RevB.01 12-Aug-2010

 -----------------------
 #B3LYP/6-31G* fopt test
 -----------------------

 --------------------------------
 IsomerC6H14/2-methyl-pentane.xyz
 --------------------------------
 Symbolic Z-matrix:
 Charge =  0 Multiplicity = 1

 SCF Done:  E(RB3LYP) =  -237.084169460     A.U. after   12 cycles
 SCF Done:  E(RB3LYP) =  -237.084724712     A.U. after   10 cycles
 SCF Done:  E(RB3LYP) =  -237.084752198     A.U. after    9 cycles
 SCF Done:  E(RB3LYP) =  -237.084758519     A.U. after    9 cycles
 SCF Done:  E(RB3LYP) =  -237.084758973     A.U. after    7 cycles
 SCF Done:  E(RB3LYP) =  -237.084759065     A.U. after    6 cycles
 Optimization completed.
    -- Stationary point found.

                         Standard orientation:
 ---------------------------------------------------------------------
 Center     Atomic      Atomic             Coordinates (Angstroms)
 Number     Number       Type             X           Y           Z
 ---------------------------------------------------------------------
      1          6           0        2.846137   -0.212588    0.150111
      2          1           0        3.681662    0.406223   -0.196868
      3          1           0        2.905169   -0.268410    1.244194
      4          1           0        2.998001   -1.226722   -0.239945
      5          6           0       -1.451885    1.379560    0.195161
      6          1           0       -0.738830    2.148554   -0.120710
      7          1           0       -2.442671    1.680950   -0.165418
      8          1           0       -1.483757    1.383726    1.293014
      9          6           0        1.498671    0.360012   -0.303195
     10          1           0        1.402313    1.388186    0.068927
     11          1           0        1.482237    0.429307   -1.400580
     12          6           0        0.305164   -0.483060    0.166648
     13          1           0        0.293962   -0.515501    1.267467
     14          6           0       -1.075191   -0.013150   -0.333965
     15          1           0       -1.027877    0.044962   -1.432884
     16          6           0       -2.158795   -1.038128    0.033599
     17          1           0       -1.925777   -2.029797   -0.372569
     18          1           0       -2.249952   -1.138320    1.123226
     19          1           0       -3.139620   -0.738118   -0.354339
     20          1           0        0.460535   -1.520917   -0.163670
 ---------------------------------------------------------------------

 The electronic state is 1-A.
 Alpha  occ. eigenvalues --  -10.18308 -10.17578 -10.17246 -10.17016 -10.16811
 Alpha  occ. eigenvalues --  -10.16810  -0.80550  -0.75519  -0.67622  -0.66928
 Alpha  occ. eigenvalues --   -0.58797  -0.55159  -0.46603  -0.43950  -0.43382
 Alpha  occ. eigenvalues --   -0.41203  -0.39199  -0.37764  -0.37399  -0.35934
 Alpha  occ. eigenvalues --   -0.34333  -0.32925  -0.31444  -0.31138  -0.30444
 Alpha virt. eigenvalues --    0.08741   0.11080   0.12372   0.13037   0.14993
 Alpha virt. eigenvalues --    0.15867   0.16475   0.16978   0.17941   0.18662
 Alpha virt. eigenvalues --    0.19452   0.19902   0.21726   0.22059   0.23743

 Mulliken atomic charges:
              1
     1  C   -0.441793
     2  H    0.140760
     3  H    0.141221
     4  H    0.140800
     5  C   -0.444539
     6  H    0.144240
     7  H    0.138818
     8  H    0.136931
     9  C   -0.253031
    10  H    0.134715
    11  H    0.128846
    12  C   -0.238503
    13  H    0.121975
    14  C   -0.065083
    15  H    0.118618
    16  C   -0.441899
    17  H    0.138539
    18  H    0.137747
    19  H    0.138204
    20  H    0.123436
 Sum of Mulliken atomic charges =   0.00000

 Dipole moment (field-independent basis, Debye):
    X=              0.0155    Y=              0.0334    Z=             -0.0786  Tot=              0.0867
 Quadrupole moment (field-independent basis, Debye-Ang):
   XX=            -42.1047   YY=            -41.7327   ZZ=            -41.1462
   XY=              0.0403   XZ=              0.0415   YZ=              0.1562

 Normal termination of Gaussian 09 at Thu Jan  4 15:10:32 2018.
