 Gaussian 09, Revision B.01,
 Gaussian 09:  EM64L-G09RevB.01 12-Aug-2010

 -----------------------
 #B3LYP/6-31G* fopt test
 -----------------------

 --------------------------------
 IsomerC6H14/3-methyl-pentane.xyz
 --------------------------------
 Symbolic Z-matrix:
 Charge =  0 Multiplicity = 1

 SCF Done:  E(RB3LYP) =  -237.082627237     A.U. after   12 cycles
 SCF Done:  E(RB3LYP) =  -237.083173877     A.U. after   13 cycles
 SCF Done:  E(RB3LYP) =  -237.083206728     A.U. after   10 cycles
 SCF Done:  E(RB3LYP) =  -237.083212790     A.U. after    9 cycles
 SCF Done:  E(RB3LYP) =  -237.083213438     A.U. after    7 cycles
 Optimization completed.
    -- Stationary point found.

                         Standard orientation:
 ---------------------------------------------------------------------
 Center     Atomic      Atomic             Coordinates (Angstroms)
 Number     Number       Type             X           Y           Z
 ---------------------------------------------------------------------
      1          6           0       -0.084840   -0.184254    0.000000
      2          6           0        1.311325   -0.826410    0.000000
      3          1           0       -0.831258   -0.995923    0.000000
      4          6           0       -0.326707    0.666278    1.264614
      5          6           0       -0.326707    0.666278   -1.264614
      6          6           0       -0.326707   -0.113502    2.584845
      7          6           0       -0.326707   -0.113502   -2.584845
      8          1           0        2.093039   -0.054511    0.000000
      9          1           0        1.467366   -1.457696    0.881091
     10          1           0        1.467366   -1.457696   -0.881091
     11          1           0        0.431839    1.462172    1.310166
     12          1           0        0.431839    1.462172   -1.310166
     13          1           0       -1.294240    1.176861    1.159390
     14          1           0       -1.294240    1.176861   -1.159390
     15          1           0       -0.576127    0.543933    3.425778
     16          1           0       -0.576127    0.543933   -3.425778
     17          1           0       -1.067828   -0.922609    2.566247
     18          1           0        0.649132   -0.562111    2.800329
     19          1           0       -1.067828   -0.922609   -2.566247
     20          1           0        0.649132   -0.562111   -2.800329
 ---------------------------------------------------------------------

 The electronic state is 1-A'.
 Alpha  occ. eigenvalues --  -10.18102 -10.17449 -10.17449 -10.16974 -10.16974
 Alpha  occ. eigenvalues --  -10.16740  -0.80680  -0.74379  -0.70357  -0.64768
 Alpha  occ. eigenvalues --   -0.59321  -0.54920  -0.46156  -0.44908  -0.42618
 Alpha  occ. eigenvalues --   -0.41164  -0.39179  -0.38415  -0.36970  -0.35829
 Alpha  occ. eigenvalues --   -0.34585  -0.33101  -0.31365  -0.30830  -0.30319
 Alpha virt. eigenvalues --    0.08559   0.11928   0.12225   0.12827   0.15254
 Alpha virt. eigenvalues --    0.15410   0.16413   0.17399   0.17494   0.18244
 Alpha virt. eigenvalues --    0.18601   0.20301   0.22692   0.23244   0.24645

 Mulliken atomic charges:
              1
     1  C   -0.056915
     2  C   -0.453013
     3  H    0.113545
     4  C   -0.246068
     5  C   -0.246068
     6  C   -0.448418
     7  C   -0.448418
     8  H    0.136374
     9  H    0.144030
    10  H    0.144030
    11  H    0.126079
    12  H    0.126079
    13  H    0.127230
    14  H    0.127230
    15  H    0.141342
    16  H    0.141342
    17  H    0.140340
    18  H    0.145468
    19  H    0.140340
    20  H    0.145468
 Sum of Mulliken atomic charges =   0.00000

 Dipole moment (field-independent basis, Debye):
    X=             -0.0511    Y=              0.0242    Z=              0.0000  Tot=              0.0565
 Quadrupole moment (field-independent basis, Debye-Ang):
   XX=            -41.2939   YY=            -41.5180   ZZ=            -41.9952
   XY=              0.1646   XZ=              0.0000   YZ=              0.0000

 Normal termination of Gaussian 09 at Fri Jan  5 13:29:12 2018.
