 Gaussian 09, Revision B.01,
 Gaussian 09:  EM64L-G09RevB.01 12-Aug-2010

 ------------------------------
 #B3LYP/6-311G** fopt test freq
 ------------------------------

 --------------------------
 Sugars/S-R-R-Fructuose.xyz
 --------------------------
 Symbolic Z-matrix:
 Charge =  0 Multiplicity = 1

 SCF Done:  E(RB3LYP) =  -687.319432290     A.U. after   14 cycles
 SCF Done:  E(RB3LYP) =  -687.330956206     A.U. after   13 cycles
 SCF Done:  E(RB3LYP) =  -687.335077041     A.U. after   13 cycles
 SCF Done:  E(RB3LYP) =  -687.336270647     A.U. after   13 cycles
 SCF Done:  E(RB3LYP) =  -687.339262916     A.U. after   12 cycles
 SCF Done:  E(RB3LYP) =  -687.342441294     A.U. after   12 cycles
 SCF Done:  E(RB3LYP) =  -687.345445684     A.U. after   15 cycles
 SCF Done:  E(RB3LYP) =  -687.346409614     A.U. after   11 cycles
 SCF Done:  E(RB3LYP) =  -687.346884332     A.U. after   12 cycles
 SCF Done:  E(RB3LYP) =  -687.347107871     A.U. after   11 cycles
 SCF Done:  E(RB3LYP) =  -687.363650654     A.U. after   11 cycles
 SCF Done:  E(RB3LYP) =  -687.363668113     A.U. after   10 cycles
 SCF Done:  E(RB3LYP) =  -687.363686709     A.U. after   10 cycles
 SCF Done:  E(RB3LYP) =  -687.363687218     A.U. after    9 cycles
 SCF Done:  E(RB3LYP) =  -687.363689406     A.U. after    8 cycles
 SCF Done:  E(RB3LYP) =  -687.363689666     A.U. after    7 cycles
 SCF Done:  E(RB3LYP) =  -687.363689902     A.U. after    7 cycles
 SCF Done:  E(RB3LYP) =  -687.363690041     A.U. after    7 cycles
 SCF Done:  E(RB3LYP) =  -687.363690093     A.U. after    6 cycles
 Optimization completed.
    -- Stationary point found.
 Normal termination of Gaussian 09 at Mon Jan 22 23:35:00 2018.

 ----------------------------------------------------------------------
 #N Geom=AllCheck Guess=TCheck SCRF=Check Test GenChk RB3LYP/6-311G(d,p
 ) Freq
 ----------------------------------------------------------------------

 Sugars/S-R-R-Fructuose.xyz
 --------------------------
 Redundant internal coordinates taken from checkpoint file:
 /home/g09scr/Gau-14462.chk
 Charge =  0 Multiplicity = 1

                         Standard orientation:
 ---------------------------------------------------------------------
 Center     Atomic      Atomic             Coordinates (Angstroms)
 Number     Number       Type             X           Y           Z
 ---------------------------------------------------------------------
      1          6           0       -3.104669   -0.649288   -0.205911
      2          8           0       -4.320419    0.053742   -0.095091
      3          1           0       -5.001538   -0.475545   -0.518532
      4          1           0       -2.856292   -0.929414   -1.239749
      5          1           0       -3.091307   -1.583052    0.376669
      6          6           0       -1.965048    0.223272    0.278384
      7          8           0       -2.110630    1.384713    0.588923
      8          6           0       -0.600304   -0.456490    0.374340
      9          6           0        0.558598    0.569054    0.245411
     10          6           0        1.855103   -0.132973   -0.156082
     11          6           0        3.087620    0.719860    0.085881
     12          1           0        3.136273    0.997724    1.147035
     13          1           0        3.033618    1.625244   -0.526476
     14          8           0        4.203613   -0.104419   -0.272536
     15          1           0        5.013850    0.335142   -0.001512
     16          1           0       -0.548152   -0.863403    1.396958
     17          8           0       -0.553586   -1.517380   -0.567334
     18          1           0        0.235411   -2.029528   -0.340408
     19          1           0        0.682370    1.034942    1.233336
     20          8           0        0.342812    1.560787   -0.745565
     21          1           0       -0.416829    2.078798   -0.449647
     22          1           0        1.785585   -0.353307   -1.227982
     23          8           0        1.959118   -1.355891    0.585214
     24          1           0        2.871955   -1.650637    0.469291
 ---------------------------------------------------------------------

 SCF Done:  E(RB3LYP) =  -687.363690093     A.U. after    1 cycles

 The electronic state is 1-A.
 Alpha  occ. eigenvalues --  -19.13513 -19.13128 -19.12149 -19.11996 -19.11845
 Alpha  occ. eigenvalues --  -19.11362 -10.26693 -10.23343 -10.23063 -10.22923
 Alpha  occ. eigenvalues --  -10.22685 -10.22678  -1.06669  -1.05419  -1.03611
 Alpha  occ. eigenvalues --   -1.02658  -1.02153  -1.02002  -0.78382  -0.75678
 Alpha  occ. eigenvalues --   -0.71876  -0.66224  -0.59264  -0.55848  -0.54132
 Alpha  occ. eigenvalues --   -0.53284  -0.52506  -0.51152  -0.50151  -0.48792
 Alpha  occ. eigenvalues --   -0.46976  -0.45960  -0.44871  -0.43980  -0.41471
 Alpha  occ. eigenvalues --   -0.40429  -0.38869  -0.37478  -0.36466  -0.36172
 Alpha  occ. eigenvalues --   -0.35077  -0.33975  -0.30400  -0.29727  -0.29115
 Alpha  occ. eigenvalues --   -0.28164  -0.26896  -0.25621
 Alpha virt. eigenvalues --   -0.03065   0.01741   0.03068   0.05088   0.05391
 Alpha virt. eigenvalues --    0.07915   0.07984   0.09835   0.10507   0.11397
 Alpha virt. eigenvalues --    0.12272   0.12786   0.13500   0.15137   0.17593

 Mulliken atomic charges:
              1
     1  C    0.014025
     2  O   -0.379179
     3  H    0.240424
     4  H    0.131299
     5  H    0.114677
     6  C    0.153757
     7  O   -0.316819
     8  C    0.050376
     9  C    0.071822
    10  C   -0.006109
    11  C    0.015802
    12  H    0.093435
    13  H    0.120761
    14  O   -0.428110
    15  H    0.252644
    16  H    0.140477
    17  O   -0.420997
    18  H    0.255937
    19  H    0.105799
    20  O   -0.411807
    21  H    0.254495
    22  H    0.136754
    23  O   -0.446874
    24  H    0.257411
 Sum of Mulliken atomic charges =   0.00000

 Dipole moment (field-independent basis, Debye):
    X=              2.4637    Y=             -1.8076    Z=              0.7466  Tot=              3.1456
 Quadrupole moment (field-independent basis, Debye-Ang):
   XX=            -54.2563   YY=            -71.2590   ZZ=            -72.7118
   XY=             12.3689   XZ=              8.1021   YZ=              0.1022

  Exact polarizability: 109.715   1.275  84.415   2.319   2.474  68.541
 Approx polarizability: 124.134  -3.824 130.575   1.682   5.830 106.519

                     1                      2                      3
                     A                      A                      A
 Frequencies --    34.7777                64.2252                93.3257
 Red. masses --     5.9878                 7.5638                 3.8517
 Frc consts  --     0.0043                 0.0184                 0.0198
 IR Inten    --     2.4918                 2.5573                 9.9787

                     4                      5                      6
                     A                      A                      A
 Frequencies --   107.2746               121.0826               134.1387
 Red. masses --     5.2813                 2.7939                 3.7742
 Frc consts  --     0.0358                 0.0241                 0.0400
 IR Inten    --    14.1530                 4.8104                 4.6979

                     7                      8                      9
                     A                      A                      A
 Frequencies --   201.0524               221.7397               242.4689
 Red. masses --     5.0199                 1.1755                 3.6103
 Frc consts  --     0.1196                 0.0341                 0.1251
 IR Inten    --     6.1399                90.5142                 1.6795

                    10                     11                     12
                     A                      A                      A
 Frequencies --   255.7555               262.0369               297.1794
 Red. masses --     3.7405                 1.4080                 5.2409
 Frc consts  --     0.1442                 0.0570                 0.2727
 IR Inten    --    32.0832                96.4680                 5.5751

                    13                     14                     15
                     A                      A                      A
 Frequencies --   309.1483               333.8443               392.4348
 Red. masses --     6.4432                 7.1213                 4.0085
 Frc consts  --     0.3628                 0.4676                 0.3637
 IR Inten    --     6.2629                 3.6353                 0.8061

                    16                     17                     18
                     A                      A                      A
 Frequencies --   439.1522               499.6197               523.7162
 Red. masses --     3.0632                 4.6839                 1.4717
 Frc consts  --     0.3481                 0.6889                 0.2378
 IR Inten    --     6.9640                26.3215                53.2329

                    19                     20                     21
                     A                      A                      A
 Frequencies --   529.5525               551.6382               569.7102
 Red. masses --     1.8994                 1.1648                 3.3629
 Frc consts  --     0.3138                 0.2088                 0.6431
 IR Inten    --    16.7946               169.6417                70.8982

                    22                     23                     24
                     A                      A                      A
 Frequencies --   615.4914               673.8219               756.0505
 Red. masses --     1.0862                 3.7597                 3.5500
 Frc consts  --     0.2424                 1.0058                 1.1956
 IR Inten    --   110.8077                38.9973                27.5203

                    25                     26                     27
                     A                      A                      A
 Frequencies --   797.4639               869.1784               906.6759
 Red. masses --     4.2930                 3.0994                 2.4319
 Frc consts  --     1.6085                 1.3796                 1.1779
 IR Inten    --    15.7980                 6.7912                47.9969

                    28                     29                     30
                     A                      A                      A
 Frequencies --   982.4597              1028.1387              1058.3244
 Red. masses --     2.5050                 3.2589                 2.8265
 Frc consts  --     1.4246                 2.0297                 1.8653
 IR Inten    --    19.6275                46.5827                60.8726

                    31                     32                     33
                     A                      A                      A
 Frequencies --  1069.0366              1072.6707              1096.2864
 Red. masses --     3.7571                 3.5668                 3.5733
 Frc consts  --     2.5298                 2.4180                 2.5303
 IR Inten    --    19.1168               182.0328                54.2589

                    34                     35                     36
                     A                      A                      A
 Frequencies --  1110.1672              1154.1092              1156.6246
 Red. masses --     2.7248                 2.5886                 3.3540
 Frc consts  --     1.9786                 2.0315                 2.6436
 IR Inten    --    26.3462                47.4736                44.6764

                    37                     38                     39
                     A                      A                      A
 Frequencies --  1207.9213              1218.0846              1240.6024
 Red. masses --     1.1787                 1.1210                 1.2341
 Frc consts  --     1.0133                 0.9799                 1.1191
 IR Inten    --    52.5748                18.7759                39.4653

                    40                     41                     42
                     A                      A                      A
 Frequencies --  1248.8146              1267.3706              1270.8779
 Red. masses --     1.2391                 1.1372                 1.1529
 Frc consts  --     1.1385                 1.0762                 1.0971
 IR Inten    --    79.5283                12.4097                22.8978

                    43                     44                     45
                     A                      A                      A
 Frequencies --  1309.4986              1341.0339              1350.6594
 Red. masses --     1.1565                 1.3055                 1.2669
 Frc consts  --     1.1684                 1.3833                 1.3618
 IR Inten    --    13.0668                16.8718               121.0943

                    46                     47                     48
                     A                      A                      A
 Frequencies --  1395.2834              1400.0754              1428.5365
 Red. masses --     1.2516                 1.2745                 1.3441
 Frc consts  --     1.4357                 1.4720                 1.6161
 IR Inten    --     2.9366                27.5835                27.6684

                    49                     50                     51
                     A                      A                      A
 Frequencies --  1442.6437              1452.9507              1471.8195
 Red. masses --     1.4047                 1.5141                 1.8261
 Frc consts  --     1.7224                 1.8832                 2.3306
 IR Inten    --     7.3020                 2.5399                 5.6389

                    52                     53                     54
                     A                      A                      A
 Frequencies --  1478.8658              1515.6774              1790.7539
 Red. masses --     1.2303                 1.0847                11.6507
 Frc consts  --     1.5854                 1.4682                22.0128
 IR Inten    --     8.2670                 5.6720               132.1724

                    55                     56                     57
                     A                      A                      A
 Frequencies --  2962.8423              2977.7901              2988.3598
 Red. masses --     1.0802                 1.0605                 1.0805
 Frc consts  --     5.5867                 5.5407                 5.6851
 IR Inten    --    10.8927                29.3205                19.0286

                    58                     59                     60
                     A                      A                      A
 Frequencies --  2996.3332              3007.5378              3027.8563
 Red. masses --     1.0660                 1.0975                 1.0823
 Frc consts  --     5.6388                 5.8489                 5.8460
 IR Inten    --    51.6494                19.7085                36.0145

                    61                     62                     63
                     A                      A                      A
 Frequencies --  3066.5886              3744.6621              3775.3542
 Red. masses --     1.1024                 1.0659                 1.0655
 Frc consts  --     6.1081                 8.8062                 8.9479
 IR Inten    --    37.2691               156.5082                91.5632

                    64                     65                     66
                     A                      A                      A
 Frequencies --  3779.5614              3850.8007              3855.8923
 Red. masses --     1.0655                 1.0667                 1.0669
 Frc consts  --     8.9677                 9.3193                 9.3457
 IR Inten    --    56.2796                42.9755                44.5048

 - Thermochemistry -
 -------------------
 Temperature   298.150 Kelvin.  Pressure   1.00000 Atm.
 Atom     1 has atomic number  6 and mass  12.00000

 Molecular mass:   180.06339 amu.
 Principal axes and moments of inertia in atomic units:
                           1         2         3
     Eigenvalues --   766.602554236.463604719.43382
           X            0.99988   0.01432   0.00571
           Y           -0.01435   0.99989   0.00478
           Z           -0.00564  -0.00486   0.99997
 This molecule is an asymmetric top.
 Rotational symmetry number  1.
 Warning -- assumption of classical behavior for rotation
           may cause significant error
 Rotational temperatures (Kelvin)      0.11298     0.02044     0.01835
 Rotational constants (GHZ):           2.35421     0.42600     0.38241
 Zero-point vibrational energy     510778.0 (Joules/Mol)
                                  122.07888 (Kcal/Mol)
 Warning -- explicit consideration of  22 degrees of freedom as
           vibrations may cause significant error
 Vibrational temperatures:     50.04    92.41   134.27   154.34   174.21
          (Kelvin)            193.00   289.27   319.03   348.86   367.97
                              377.01   427.57   444.79   480.33   564.63
                              631.84   718.84   753.51   761.91   793.68
                              819.68   885.55   969.48  1087.79  1147.37
                             1250.55  1304.50  1413.54  1479.26  1522.69
                             1538.10  1543.33  1577.31  1597.28  1660.50
                             1664.12  1737.93  1752.55  1784.95  1796.76
                             1823.46  1828.51  1884.07  1929.45  1943.30
                             2007.50  2014.39  2055.34  2075.64  2090.47
                             2117.62  2127.76  2180.72  2576.49  4262.86
                             4284.37  4299.58  4311.05  4327.17  4356.40
                             4412.13  5387.73  5431.89  5437.94  5540.44
                             5547.76

 Zero-point correction=                           0.194545 (Hartree/Particle)
 Thermal correction to Energy=                    0.208192
 Thermal correction to Enthalpy=                  0.209136
 Thermal correction to Gibbs Free Energy=         0.154118
 Sum of electronic and zero-point Energies=           -687.169145
 Sum of electronic and thermal Energies=              -687.155498
 Sum of electronic and thermal Enthalpies=            -687.154554
 Sum of electronic and thermal Free Energies=         -687.209572

                     E (Thermal)             CV                S
                      KCal/Mol        Cal/Mol-Kelvin    Cal/Mol-Kelvin
 Total                  130.642             49.480            115.794
 Electronic               0.000              0.000              0.000
 Translational            0.889              2.981             41.471
 Rotational               0.889              2.981             31.106
 Vibrational            128.865             43.518             43.217
 Vibration     1          0.594              1.983              5.536
 Vibration     2          0.597              1.971              4.323
 Vibration     3          0.602              1.954              3.589
 Vibration     4          0.606              1.943              3.318
 Vibration     5          0.609              1.932              3.083
 Vibration     6          0.613              1.919              2.886
 Vibration     7          0.638              1.838              2.123
 Vibration     8          0.648              1.808              1.945
 Vibration     9          0.659              1.775              1.785
 Vibration    10          0.666              1.753              1.691
 Vibration    11          0.669              1.742              1.648
 Vibration    12          0.691              1.679              1.433
 Vibration    13          0.699              1.656              1.367
 Vibration    14          0.715              1.608              1.241
 Vibration    15          0.760              1.486              0.991
 Vibration    16          0.799              1.385              0.829
 Vibration    17          0.855              1.251              0.659
 Vibration    18          0.879              1.197              0.601
 Vibration    19          0.885              1.185              0.588
 Vibration    20          0.907              1.136              0.541
 Vibration    21          0.926              1.097              0.505
 Vibration    22          0.975              0.999              0.424

 Optimization completed.
    -- Stationary point found.
 Normal termination of Gaussian 09 at Mon Jan 22 23:41:22 2018.
