 Gaussian 09, Revision B.01,
 Gaussian 09:  EM64L-G09RevB.01 12-Aug-2010

 ------------------------------
 #B3LYP/6-311G** fopt test freq
 ------------------------------

 --------------------------
 Sugars/S-S-S-Fructuose.xyz
 --------------------------
 Symbolic Z-matrix:
 Charge =  0 Multiplicity = 1

 SCF Done:  E(RB3LYP) =  -687.312138243     A.U. after   14 cycles
 SCF Done:  E(RB3LYP) =  -687.322095219     A.U. after   13 cycles
 SCF Done:  E(RB3LYP) =  -687.326079780     A.U. after   15 cycles
 SCF Done:  E(RB3LYP) =  -687.327952689     A.U. after   12 cycles
 SCF Done:  E(RB3LYP) =  -687.330734241     A.U. after   12 cycles
 SCF Done:  E(RB3LYP) =  -687.333170052     A.U. after   12 cycles
 SCF Done:  E(RB3LYP) =  -687.337522525     A.U. after   15 cycles
 SCF Done:  E(RB3LYP) =  -687.342427043     A.U. after   14 cycles
 SCF Done:  E(RB3LYP) =  -687.344792552     A.U. after   14 cycles
 SCF Done:  E(RB3LYP) =  -687.346588444     A.U. after   14 cycles
 SCF Done:  E(RB3LYP) =  -687.368408621     A.U. after   11 cycles
 SCF Done:  E(RB3LYP) =  -687.368429498     A.U. after    9 cycles
 SCF Done:  E(RB3LYP) =  -687.368437181     A.U. after    9 cycles
 SCF Done:  E(RB3LYP) =  -687.368442080     A.U. after    9 cycles
 SCF Done:  E(RB3LYP) =  -687.368444505     A.U. after    8 cycles
 SCF Done:  E(RB3LYP) =  -687.368445425     A.U. after    8 cycles
 SCF Done:  E(RB3LYP) =  -687.368445732     A.U. after    7 cycles
 SCF Done:  E(RB3LYP) =  -687.368445817     A.U. after    7 cycles
 SCF Done:  E(RB3LYP) =  -687.368445846     A.U. after    6 cycles
 Optimization completed.
    -- Stationary point found.
 Normal termination of Gaussian 09 at Tue Jan 23 03:29:33 2018.

 ----------------------------------------------------------------------
 #N Geom=AllCheck Guess=TCheck SCRF=Check Test GenChk RB3LYP/6-311G(d,p
 ) Freq
 ----------------------------------------------------------------------

 Sugars/S-S-S-Fructuose.xyz
 --------------------------
 Redundant internal coordinates taken from checkpoint file:
 /home/g09scr/Gau-21438.chk
 Charge =  0 Multiplicity = 1

                         Standard orientation:
 ---------------------------------------------------------------------
 Center     Atomic      Atomic             Coordinates (Angstroms)
 Number     Number       Type             X           Y           Z
 ---------------------------------------------------------------------
      1          6           0       -3.121376   -0.678428   -0.121860
      2          8           0       -4.314563    0.033343   -0.351719
      3          1           0       -4.997426   -0.608048   -0.565744
      4          1           0       -2.812236   -1.301792   -0.972695
      5          1           0       -3.178445   -1.355464    0.743778
      6          6           0       -1.990888    0.294663    0.135506
      7          8           0       -2.142458    1.496704    0.065651
      8          6           0       -0.636935   -0.323643    0.507054
      9          6           0        0.533139    0.440993   -0.167213
     10          6           0        1.897682   -0.117726    0.245214
     11          6           0        3.053708    0.652273   -0.376610
     12          1           0        3.066502    1.677074    0.001836
     13          1           0        2.936310    0.666069   -1.467788
     14          8           0        4.232488   -0.072604    0.000278
     15          1           0        4.978480    0.267003   -0.500810
     16          1           0       -0.529429   -0.175764    1.596236
     17          8           0       -0.676762   -1.698150    0.174005
     18          1           0        0.239943   -2.013753    0.123754
     19          1           0        0.426921    0.325746   -1.257735
     20          8           0        0.545855    1.801903    0.218837
     21          1           0       -0.369638    2.119551    0.144178
     22          1           0        1.986132   -0.048588    1.338396
     23          8           0        1.972956   -1.488395   -0.162582
     24          1           0        2.900773   -1.743246   -0.071713
 ---------------------------------------------------------------------

 SCF Done:  E(RB3LYP) =  -687.368445846     A.U. after    1 cycles

 The electronic state is 1-A.
 Alpha  occ. eigenvalues --  -19.13625 -19.13582 -19.12712 -19.12024 -19.11612
 Alpha  occ. eigenvalues --  -19.11112 -10.27121 -10.23747 -10.23512 -10.23430
 Alpha  occ. eigenvalues --  -10.22892 -10.22648  -1.07184  -1.05793  -1.03534
 Alpha  occ. eigenvalues --   -1.02903  -1.02203  -1.02051  -0.78447  -0.75743
 Alpha  occ. eigenvalues --   -0.71872  -0.66599  -0.59835  -0.55254  -0.54909
 Alpha  occ. eigenvalues --   -0.53960  -0.53585  -0.52366  -0.49434  -0.48425
 Alpha  occ. eigenvalues --   -0.46929  -0.45868  -0.44493  -0.44052  -0.41864
 Alpha  occ. eigenvalues --   -0.40731  -0.39257  -0.38073  -0.37306  -0.36883
 Alpha  occ. eigenvalues --   -0.35453  -0.34008  -0.29853  -0.29629  -0.29297
 Alpha  occ. eigenvalues --   -0.28282  -0.26981  -0.25862
 Alpha virt. eigenvalues --   -0.03311   0.01656   0.03130   0.04948   0.06519
 Alpha virt. eigenvalues --    0.06877   0.07938   0.10362   0.10468   0.11092
 Alpha virt. eigenvalues --    0.12890   0.13468   0.14097   0.16401   0.17730

 Mulliken atomic charges:
              1
     1  C    0.023813
     2  O   -0.378360
     3  H    0.240887
     4  H    0.128133
     5  H    0.120659
     6  C    0.167901
     7  O   -0.326022
     8  C    0.050182
     9  C    0.024984
    10  C    0.029727
    11  C    0.023226
    12  H    0.127765
    13  H    0.096413
    14  O   -0.432715
    15  H    0.254640
    16  H    0.131029
    17  O   -0.429656
    18  H    0.266854
    19  H    0.107135
    20  O   -0.414240
    21  H    0.256247
    22  H    0.121024
    23  O   -0.455795
    24  H    0.266170
 Sum of Mulliken atomic charges =   0.00000

 Dipole moment (field-independent basis, Debye):
    X=              2.2444    Y=             -2.2174    Z=             -0.9458  Tot=              3.2938
 Quadrupole moment (field-independent basis, Debye-Ang):
   XX=            -55.1452   YY=            -76.1716   ZZ=            -69.1722
   XY=             10.9247   XZ=             -3.9303   YZ=             -0.7406

  Exact polarizability: 111.332   2.859  85.552   0.556   0.089  67.373
 Approx polarizability: 126.968  -0.604 134.171   2.344   1.419 101.634

                     1                      2                      3
                     A                      A                      A
 Frequencies --    30.5992                55.0299                68.5590
 Red. masses --     6.7847                 5.4405                 7.1606
 Frc consts  --     0.0037                 0.0097                 0.0198
 IR Inten    --     1.8422                 2.5531                 0.4224

                     4                      5                      6
                     A                      A                      A
 Frequencies --   112.1244               131.1922               137.7888
 Red. masses --     3.8498                 3.2876                 3.1711
 Frc consts  --     0.0285                 0.0333                 0.0355
 IR Inten    --    12.7747                 8.1233                 5.1617

                     7                      8                      9
                     A                      A                      A
 Frequencies --   209.1199               227.9648               249.5987
 Red. masses --     4.9377                 1.1562                 3.0426
 Frc consts  --     0.1272                 0.0354                 0.1117
 IR Inten    --     0.1412                93.9981                47.8630

                    10                     11                     12
                     A                      A                      A
 Frequencies --   263.2265               307.3362               311.3969
 Red. masses --     1.3400                 5.7865                 5.4703
 Frc consts  --     0.0547                 0.3220                 0.3125
 IR Inten    --    76.8760                 5.9239                 5.1857

                    13                     14                     15
                     A                      A                      A
 Frequencies --   337.8241               352.5157               376.9768
 Red. masses --     3.9030                 8.0074                 5.0256
 Frc consts  --     0.2624                 0.5863                 0.4208
 IR Inten    --    13.0932                 4.4913                 0.6371

                    16                     17                     18
                     A                      A                      A
 Frequencies --   439.8048               474.3910               504.0110
 Red. masses --     2.5797                 1.7307                 2.1287
 Frc consts  --     0.2940                 0.2295                 0.3186
 IR Inten    --    16.7164                28.7450               117.4166

                    19                     20                     21
                     A                      A                      A
 Frequencies --   545.4262               557.3508               566.8859
 Red. masses --     1.9263                 2.4283                 1.6871
 Frc consts  --     0.3376                 0.4444                 0.3194
 IR Inten    --    10.9419                40.0572                49.9852

                    22                     23                     24
                     A                      A                      A
 Frequencies --   583.7355               642.5291               694.3184
 Red. masses --     4.9017                 1.1250                 3.1842
 Frc consts  --     0.9841                 0.2736                 0.9044
 IR Inten    --    23.5543               133.6189                16.7224

                    25                     26                     27
                     A                      A                      A
 Frequencies --   804.8663               896.7425               950.1978
 Red. masses --     3.7880                 2.2838                 3.0650
 Frc consts  --     1.4458                 1.0820                 1.6305
 IR Inten    --    16.1953                23.6654                 5.7198

                    28                     29                     30
                     A                      A                      A
 Frequencies --  1008.3313              1052.4611              1067.2196
 Red. masses --     2.8309                 3.9054                 3.0490
 Frc consts  --     1.6958                 2.5488                 2.0460
 IR Inten    --    10.1779               119.2726                12.5754

                    31                     32                     33
                     A                      A                      A
 Frequencies --  1076.4678              1087.2269              1100.6084
 Red. masses --     3.6300                 5.3228                 3.0113
 Frc consts  --     2.4783                 3.7071                 2.1492
 IR Inten    --    68.0424               125.1776                88.8380

                    34                     35                     36
                     A                      A                      A
 Frequencies --  1113.3015              1132.5147              1159.5420
 Red. masses --     3.6846                 3.2634                 2.3915
 Frc consts  --     2.6907                 2.4661                 1.8945
 IR Inten    --    40.6689                35.5981                31.8750

                    37                     38                     39
                     A                      A                      A
 Frequencies --  1205.2948              1237.1240              1240.9416
 Red. masses --     1.1686                 1.2209                 1.1525
 Frc consts  --     1.0002                 1.1009                 1.0457
 IR Inten    --    17.3585                50.2787                57.6242

                    40                     41                     42
                     A                      A                      A
 Frequencies --  1251.1492              1267.2518              1280.0485
 Red. masses --     1.2308                 1.1529                 1.2028
 Frc consts  --     1.1352                 1.0909                 1.1612
 IR Inten    --    27.5708                20.8727                10.9423

                    43                     44                     45
                     A                      A                      A
 Frequencies --  1304.5067              1329.7655              1362.0645
 Red. masses --     1.1532                 1.1593                 1.1993
 Frc consts  --     1.1562                 1.2078                 1.3109
 IR Inten    --    25.6621                 5.0562                 3.4788

                    46                     47                     48
                     A                      A                      A
 Frequencies --  1378.5526              1399.4280              1436.6386
 Red. masses --     1.2577                 1.3387                 1.3192
 Frc consts  --     1.4082                 1.5447                 1.6042
 IR Inten    --    61.3350                93.5599                79.2581

                    49                     50                     51
                     A                      A                      A
 Frequencies --  1445.3326              1464.8770              1477.6375
 Red. masses --     1.4163                 1.4386                 1.2346
 Frc consts  --     1.7432                 1.8189                 1.5882
 IR Inten    --    18.4416                32.8354                10.7100

                    52                     53                     54
                     A                      A                      A
 Frequencies --  1487.8905              1515.2740              1780.9844
 Red. masses --     1.6709                 1.0845                11.1819
 Frc consts  --     2.1794                 1.4671                20.8971
 IR Inten    --     5.1513                 5.6363               124.7319

                    55                     56                     57
                     A                      A                      A
 Frequencies --  2934.9754              2963.5913              2982.7101
 Red. masses --     1.0790                 1.0828                 1.0604
 Frc consts  --     5.4761                 5.6032                 5.5583
 IR Inten    --    15.3185                36.2385                25.7996

                    58                     59                     60
                     A                      A                      A
 Frequencies --  2994.8225              3009.4339              3011.3368
 Red. masses --     1.0792                 1.0690                 1.0967
 Frc consts  --     5.7030                 5.7040                 5.8597
 IR Inten    --    15.5858                70.2599                24.7104

                    61                     62                     63
                     A                      A                      A
 Frequencies --  3085.5259              3649.3379              3668.7476
 Red. masses --     1.1007                 1.0661                 1.0670
 Frc consts  --     6.1739                 8.3654                 8.4617
 IR Inten    --    25.7939               217.2369               436.6082

                    64                     65                     66
                     A                      A                      A
 Frequencies --  3775.7189              3850.5461              3858.6019
 Red. masses --     1.0654                 1.0667                 1.0669
 Frc consts  --     8.9488                 9.3180                 9.3592
 IR Inten    --    66.0944                43.3915                47.9208

 - Thermochemistry -
 -------------------
 Temperature   298.150 Kelvin.  Pressure   1.00000 Atm.
 Atom     1 has atomic number  6 and mass  12.00000

 Molecular mass:   180.06339 amu.
 Principal axes and moments of inertia in atomic units:
                           1         2         3
     Eigenvalues --   799.814694213.128274868.57307
           X            0.99990   0.01365  -0.00231
           Y           -0.01367   0.99989  -0.00593
           Z            0.00223   0.00596   0.99998
 This molecule is an asymmetric top.
 Rotational symmetry number  1.
 Warning -- assumption of classical behavior for rotation
           may cause significant error
 Rotational temperatures (Kelvin)      0.10829     0.02056     0.01779
 Rotational constants (GHZ):           2.25645     0.42836     0.37069
 Zero-point vibrational energy     510083.5 (Joules/Mol)
                                  121.91287 (Kcal/Mol)
 Warning -- explicit consideration of  22 degrees of freedom as
           vibrations may cause significant error
 Vibrational temperatures:     44.03    79.18    98.64   161.32   188.76
          (Kelvin)            198.25   300.88   327.99   359.12   378.72
                              442.19   448.03   486.05   507.19   542.38
                              632.78   682.54   725.16   784.75   801.90
                              815.62   839.86   924.45   998.97  1158.02
                             1290.21  1367.12  1450.76  1514.25  1535.49
                             1548.80  1564.28  1583.53  1601.79  1629.43
                             1668.32  1734.15  1779.94  1785.44  1800.12
                             1823.29  1841.70  1876.89  1913.23  1959.70
                             1983.43  2013.46  2067.00  2079.51  2107.63
                             2125.99  2140.74  2180.14  2562.44  4222.77
                             4263.94  4291.45  4308.88  4329.90  4332.64
                             4439.38  5250.58  5278.50  5432.41  5540.07
                             5551.66

 Zero-point correction=                           0.194281 (Hartree/Particle)
 Thermal correction to Energy=                    0.207861
 Thermal correction to Enthalpy=                  0.208805
 Thermal correction to Gibbs Free Energy=         0.153617
 Sum of electronic and zero-point Energies=           -687.174165
 Sum of electronic and thermal Energies=              -687.160585
 Sum of electronic and thermal Enthalpies=            -687.159641
 Sum of electronic and thermal Free Energies=         -687.214829

                     E (Thermal)             CV                S
                      KCal/Mol        Cal/Mol-Kelvin    Cal/Mol-Kelvin
 Total                  130.435             49.371            116.153
 Electronic               0.000              0.000              0.000
 Translational            0.889              2.981             41.471
 Rotational               0.889              2.981             31.173
 Vibrational            128.657             43.409             43.509
 Vibration     1          0.594              1.984              5.790
 Vibration     2          0.596              1.976              4.628
 Vibration     3          0.598              1.969              4.194
 Vibration     4          0.607              1.939              3.232
 Vibration     5          0.612              1.922              2.928
 Vibration     6          0.614              1.916              2.834
 Vibration     7          0.642              1.827              2.051
 Vibration     8          0.651              1.798              1.895
 Vibration     9          0.662              1.763              1.733
 Vibration    10          0.670              1.740              1.640
 Vibration    11          0.697              1.660              1.377
 Vibration    12          0.700              1.652              1.355
 Vibration    13          0.718              1.600              1.222
 Vibration    14          0.729              1.570              1.155
 Vibration    15          0.748              1.519              1.051
 Vibration    16          0.800              1.383              0.827
 Vibration    17          0.831              1.307              0.725
 Vibration    18          0.859              1.241              0.648
 Vibration    19          0.901              1.150              0.554
 Vibration    20          0.913              1.124              0.529
 Vibration    21          0.923              1.103              0.510
 Vibration    22          0.941              1.067              0.478

 Normal termination of Gaussian 09 at Tue Jan 23 03:35:54 2018.
