 Gaussian 09, Revision B.01,
 Gaussian 09:  EM64L-G09RevB.01 12-Aug-2010

 ----------------------------
 #B3LYP/6-31G* fopt test freq
 ----------------------------

 --------------------------------
 RotationSameMolecule/Porphin.xyz
 --------------------------------
 Symbolic Z-matrix:
 Charge =  0 Multiplicity = 1

 SCF Done:  E(RB3LYP) =  -988.164579320     A.U. after   16 cycles
 SCF Done:  E(RB3LYP) =  -988.181586456     A.U. after   12 cycles
 SCF Done:  E(RB3LYP) =  -988.182602778     A.U. after   11 cycles
 SCF Done:  E(RB3LYP) =  -988.182666824     A.U. after    8 cycles
 Optimization completed.
    -- Stationary point found.

 1\1\GINC-TERMINUS\FOpt\RB3LYP\6-31G(d)\C20H12N4\FRODOX\22-Jan-2018\0\\
 #B3LYP/6-31G* fopt test freq\\RotationSameMolecule/Porphin.xyz\\0,1\C,
 0.680998543,-4.2892381715,0.\C,-0.680998543,-4.2892381715,0.\C,-1.0803
 642275,-2.8840412278,0.\C,1.0803642275,-2.8840412278,0.\N,0.,-2.065489
 6128,0.\C,2.4054469066,-2.4054469066,0.\C,2.8840412278,-1.0803642275,0
 .\N,2.0654896128,0.,0.\C,2.8840412278,1.0803642275,0.\C,4.2892381715,-
 0.680998543,0.\C,4.2892381715,0.680998543,0.\C,2.4054469066,2.40544690
 66,0.\C,1.0803642275,2.8840412278,0.\N,0.,2.0654896128,0.\C,-0.6809985

 Normal termination of Gaussian 09 at Mon Jan 22 17:46:23 2018.

 ----------------------------------------------------------------------
 #N Geom=AllCheck Guess=TCheck SCRF=Check Test GenChk RB3LYP/6-31G(d) F
 req
 ----------------------------------------------------------------------

 RotationSameMolecule/Porphin.xyz
 --------------------------------
 Redundant internal coordinates taken from checkpoint file:
 /home/g09scr/Gau-5702.chk
 Charge =  0 Multiplicity = 1

                         Standard orientation:
 ---------------------------------------------------------------------
 Center     Atomic      Atomic             Coordinates (Angstroms)
 Number     Number       Type             X           Y           Z
 ---------------------------------------------------------------------
      1          6           0        0.680999    4.289238    0.000000
      2          6           0       -0.680999    4.289238    0.000000
      3          6           0       -1.080364    2.884041    0.000000
      4          6           0        1.080364    2.884041    0.000000
      5          7           0        0.000000    2.065490    0.000000
      6          6           0        2.405447    2.405447    0.000000
      7          6           0        2.884041    1.080364    0.000000
      8          7           0        2.065490    0.000000    0.000000
      9          6           0        2.884041   -1.080364    0.000000
     10          6           0        4.289238    0.680999    0.000000
     11          6           0        4.289238   -0.680999    0.000000
     12          6           0        2.405447   -2.405447    0.000000
     13          6           0        1.080364   -2.884041    0.000000
     14          7           0        0.000000   -2.065490    0.000000
     15          6           0       -0.680999   -4.289238    0.000000
     16          6           0        0.680999   -4.289238    0.000000
     17          6           0       -2.884041   -1.080364    0.000000
     18          7           0       -2.065490    0.000000    0.000000
     19          6           0       -2.884041    1.080364    0.000000
     20          6           0       -4.289238    0.680999    0.000000
     21          6           0       -4.289238   -0.680999    0.000000
     22          6           0       -2.405447    2.405447    0.000000
     23          6           0       -2.405447   -2.405447    0.000000
     24          6           0       -1.080364   -2.884041    0.000000
     25          1           0        1.346846    5.144018    0.000000
     26          1           0       -1.346846    5.144018    0.000000
     27          1           0        3.176479    3.176479    0.000000
     28          1           0        5.144018    1.346846    0.000000
     29          1           0        5.144018   -1.346846    0.000000
     30          1           0        3.176479   -3.176479    0.000000
     31          1           0       -1.346846   -5.144018    0.000000
     32          1           0        1.346846   -5.144018    0.000000
     33          1           0       -5.144018    1.346846    0.000000
     34          1           0       -5.144018   -1.346846    0.000000
     35          1           0       -3.176479    3.176479    0.000000
     36          1           0       -3.176479   -3.176479    0.000000
 ---------------------------------------------------------------------

 SCF Done:  E(RB3LYP) =  -988.182666824     A.U. after    1 cycles

 The electronic state is 1-A1G.
 Alpha  occ. eigenvalues --  -14.31491 -14.31491 -14.31491 -14.31490 -10.23420
 Alpha  occ. eigenvalues --  -10.23420 -10.23420 -10.23420 -10.21681 -10.21680
 Alpha  occ. eigenvalues --  -10.21680 -10.21680 -10.21680 -10.21679 -10.21679
 Alpha  occ. eigenvalues --  -10.21679 -10.18605 -10.18605 -10.18605 -10.18605
 Alpha  occ. eigenvalues --  -10.18534 -10.18534 -10.18534 -10.18534  -0.95485
 Alpha  occ. eigenvalues --   -0.94758  -0.94758  -0.93889  -0.81498  -0.78934
 Alpha  occ. eigenvalues --   -0.78934  -0.75904  -0.75600  -0.75600  -0.75299
 Alpha  occ. eigenvalues --   -0.74542  -0.70959  -0.65308  -0.65308  -0.58951
 Alpha  occ. eigenvalues --   -0.57612  -0.56744  -0.56541  -0.56541  -0.54526
 Alpha  occ. eigenvalues --   -0.51810  -0.50951  -0.50951  -0.49867  -0.49813
 Alpha  occ. eigenvalues --   -0.49813  -0.45318  -0.43029  -0.41862  -0.41862
 Alpha  occ. eigenvalues --   -0.41549  -0.41460  -0.40579  -0.40202  -0.40202
 Alpha  occ. eigenvalues --   -0.38498  -0.38498  -0.37937  -0.37895  -0.37025
 Alpha  occ. eigenvalues --   -0.37025  -0.36718  -0.36343  -0.32251  -0.28479
 Alpha  occ. eigenvalues --   -0.27795  -0.27795  -0.25114  -0.25114  -0.24741
 Alpha  occ. eigenvalues --   -0.23318  -0.23255  -0.23255  -0.22332  -0.19018
 Alpha virt. eigenvalues --   -0.15483  -0.07526  -0.07526  -0.02465   0.06615
 Alpha virt. eigenvalues --    0.07169   0.07169   0.07926   0.09289   0.10685
 Alpha virt. eigenvalues --    0.10685   0.12304   0.12548   0.13643   0.14228

 Mulliken atomic charges:
              1
     1  C   -0.181483
     2  C   -0.181483
     3  C    0.308140
     4  C    0.308140
     5  N   -0.453711
     6  C   -0.218311
     7  C    0.308140
     8  N   -0.453711
     9  C    0.308140
    10  C   -0.181483
    11  C   -0.181483
    12  C   -0.218311
    13  C    0.308140
    14  N   -0.453711
    15  C   -0.181483
    16  C   -0.181483
    17  C    0.308140
    18  N   -0.453711
    19  C    0.308140
    20  C   -0.181483
    21  C   -0.181483
    22  C   -0.218311
    23  C   -0.218311
    24  C    0.308140
    25  H    0.132239
    26  H    0.132239
    27  H    0.154229
    28  H    0.132239
    29  H    0.132239
    30  H    0.154229
    31  H    0.132239
    32  H    0.132239
    33  H    0.132239
    34  H    0.132239
    35  H    0.154229
    36  H    0.154229
 Sum of Mulliken atomic charges =   0.00000

 Dipole moment (field-independent basis, Debye):
    X=              0.0000    Y=              0.0000    Z=              0.0000  Tot=              0.0000
 Quadrupole moment (field-independent basis, Debye-Ang):
   XX=           -104.0541   YY=           -104.0541   ZZ=           -139.7282
   XY=              0.0000   XZ=              0.0000   YZ=              0.0000

  Exact polarizability: 446.892   0.000 446.892   0.000   0.000  73.739
 Approx polarizability: 976.638   0.000 976.638   0.000   0.000 125.148

 ******    2 imaginary frequencies (negative Signs) ******

                     1                      2                      3
                    A2G                    B2U                    EG
 Frequencies -- -3564.4549               -74.0476                74.5790
 Red. masses --    12.1571                 5.0757                 5.7911
 Frc consts  --    91.0055                 0.0164                 0.0190
 IR Inten    --     0.0000                 0.0000                 0.0000

                     4                      5                      6
                    EG                     B2U                    B1U
 Frequencies --    74.5790                75.7301                78.6630
 Red. masses --     5.7911                10.2108                 4.9982
 Frc consts  --     0.0190                 0.0345                 0.0182
 IR Inten    --     0.0000                 0.0000                 0.0000

                     7                      8                      9
                    A2U                    B1G                    B2G
 Frequencies --    81.4118               136.4260               147.1758
 Red. masses --     4.8371                 9.0543                 8.4852
 Frc consts  --     0.0189                 0.0993                 0.1083
 IR Inten    --    14.4206                 0.0000                 0.0000

                    10                     11                     12
                    EG                     EG                     A1U
 Frequencies --   179.7937               179.7937               273.6235
 Red. masses --     5.1274                 5.1274                 5.1100
 Frc consts  --     0.0977                 0.0977                 0.2254
 IR Inten    --     0.0000                 0.0000                 0.0000

                    13                     14                     15
                    EU                     EU                     A1G
 Frequencies --   303.7637               303.7637               308.4263
 Red. masses --     6.6473                 6.6473                 8.3494
 Frc consts  --     0.3614                 0.3614                 0.4680
 IR Inten    --     2.9353                 2.9353                 0.0000

                    16                     17                     18
                    A2U                    EU                     EU
 Frequencies --   328.6418               348.9766               348.9766
 Red. masses --     3.0379                 5.2201                 5.2201
 Frc consts  --     0.1933                 0.3746                 0.3746
 IR Inten    --    11.5816                 1.0563                 1.0563

                    19                     20                     21
                    A2G                    B2G                    EG
 Frequencies --   380.6394               406.1198               416.4169
 Red. masses --     5.0504                 4.2998                 3.1287
 Frc consts  --     0.4311                 0.4178                 0.3196
 IR Inten    --     0.0000                 0.0000                 0.0000

                    22                     23                     24
                    EG                     B1U                    B2U
 Frequencies --   416.4169               465.7487               645.5442
 Red. masses --     3.1287                 3.0014                 3.2352
 Frc consts  --     0.3196                 0.3836                 0.7943
 IR Inten    --     0.0000                 0.0000                 0.0000

                    25                     26                     27
                    B1U                    EG                     EG
 Frequencies --   646.0750               664.0134               664.0134
 Red. masses --     3.1596                 3.7844                 3.7844
 Frc consts  --     0.7771                 0.9831                 0.9831
 IR Inten    --     0.0000                 0.0000                 0.0000

                    28                     29                     30
                    A1U                    EG                     EG
 Frequencies --   682.9971               693.0070               693.0070
 Red. masses --     4.8827                 2.8025                 2.8025
 Frc consts  --     1.3420                 0.7930                 0.7930
 IR Inten    --     0.0000                 0.0000                 0.0000

                    31                     32                     33
                    A2U                    A1G                    B1G
 Frequencies --   723.3910               736.1745               737.5297
 Red. masses --     2.0740                 6.9367                 4.9145
 Frc consts  --     0.6394                 2.2149                 1.5750
 IR Inten    --    39.6749                 0.0000                 0.0000

                    34                     35                     36
                    EU                     EU                     EG
 Frequencies --   750.9070               750.9070               778.6851
 Red. masses --     4.8510                 4.8510                 1.7359
 Frc consts  --     1.6116                 1.6116                 0.6201
 IR Inten    --    79.4858                79.4858                 0.0000

                    37                     38                     39
                    EG                     B2U                    A2U
 Frequencies --   778.6851               779.0935               779.8976
 Red. masses --     1.7359                 1.5968                 2.1098
 Frc consts  --     0.6201                 0.5710                 0.7561
 IR Inten    --     0.0000                 0.0000               107.3510

                    40                     41                     42
                    EU                     EU                     B2G
 Frequencies --   809.8791               809.8791               826.9422
 Red. masses --     6.8669                 6.8669                 5.3059
 Frc consts  --     2.6537                 2.6537                 2.1378
 IR Inten    --    42.1067                42.1068                 0.0000

                    43                     44                     45
                    A2G                    B1U                    EG
 Frequencies --   832.3308               888.6983               889.7054
 Red. masses --     6.5298                 1.2655                 1.2854
 Frc consts  --     2.6653                 0.5889                 0.5995
 IR Inten    --     0.0000                 0.0000                 0.0000

                    46                     47                     48
                    EG                     A1U                    A1G
 Frequencies --   889.7054               891.0881               962.6488
 Red. masses --     1.2854                 1.3186                 8.8105
 Frc consts  --     0.5995                 0.6169                 4.8105
 IR Inten    --     0.0000                 0.0000                 0.0000

                    49                     50                     51
                    EU                     EU                     B1U
 Frequencies --   967.4303               967.4303               968.8780
 Red. masses --     8.3049                 8.3049                 1.6819
 Frc consts  --     4.5796                 4.5796                 0.9302
 IR Inten    --    88.7293                88.7293                 0.0000

                    52                     53                     54
                    EG                     EG                     A2U
 Frequencies --   974.9184               974.9184               981.6871
 Red. masses --     1.5474                 1.5474                 1.4348
 Frc consts  --     0.8665                 0.8665                 0.8147
 IR Inten    --     0.0000                 0.0000                35.5644

                    55                     56                     57
                    B1G                    A2G                    EU
 Frequencies --   983.3876              1004.7028              1021.4165
 Red. masses --     7.0534                 2.5899                 3.0848
 Frc consts  --     4.0188                 1.5403                 1.8962
 IR Inten    --     0.0000                 0.0000                 4.7487

                    58                     59                     60
                    EU                     B2G                    EU
 Frequencies --  1021.4165              1052.4454              1085.4140
 Red. masses --     3.0848                 4.3887                 1.1073
 Frc consts  --     1.8962                 2.8641                 0.7686
 IR Inten    --     4.7487                 0.0000                82.6356

                    61                     62                     63
                    EU                     A1G                    B1G
 Frequencies --  1085.4140              1087.1607              1087.1854
 Red. masses --     1.1073                 1.1038                 1.1039
 Frc consts  --     0.7686                 0.7687                 0.7687
 IR Inten    --    82.6356                 0.0000                 0.0000

                    64                     65                     66
                    B1G                    EU                     EU
 Frequencies --  1188.7424              1191.8828              1191.8828
 Red. masses --     2.6781                 1.9435                 1.9435
 Frc consts  --     2.2297                 1.6267                 1.6267
 IR Inten    --     0.0000                 0.5113                 0.5113

                    67                     68                     69
                    B2G                    A2G                    EU
 Frequencies --  1201.8307              1208.7958              1264.1495
 Red. masses --     2.3297                 1.5932                 3.6559
 Frc consts  --     1.9826                 1.3716                 3.4422
 IR Inten    --     0.0000                 0.0000                42.9734

                    70                     71                     72
                    EU                     A1G                    EU
 Frequencies --  1264.1495              1352.7239              1363.1751
 Red. masses --     3.6559                11.5287                 5.1282
 Frc consts  --     3.4422                12.4294                 5.6146
 IR Inten    --    42.9734                 0.0000               796.0837

                    73                     74                     75
                    EU                     A2G                    B2G
 Frequencies --  1363.1751              1377.1891              1386.3656
 Red. masses --     5.1282                 1.7572                 4.5215
 Frc consts  --     5.6146                 1.9636                 5.1202
 IR Inten    --   796.0837                 0.0000                 0.0000

                    76                     77                     78
                    EU                     EU                     B1G
 Frequencies --  1410.3312              1410.3312              1417.8421
 Red. masses --     2.1493                 2.1493                 2.1201
 Frc consts  --     2.5188                 2.5188                 2.5111
 IR Inten    --   251.5093               251.5093                 0.0000

                    79                     80                     81
                    EU                     EU                     A1G
 Frequencies --  1450.5233              1450.5233              1458.3109
 Red. masses --     4.6192                 4.6192                 9.3988
 Frc consts  --     5.7261                 5.7261                11.7767
 IR Inten    --   159.6536               159.6536                 0.0000

                    82                     83                     84
                    B2G                    A2G                    B1G
 Frequencies --  1466.2212              1518.3200              1548.9061
 Red. masses --     4.7713                 2.6780                 5.2966
 Frc consts  --     6.0434                 3.6373                 7.4868
 IR Inten    --     0.0000                 0.0000                 0.0000

                    85                     86                     87
                    EU                     EU                     A1G
 Frequencies --  1566.0407              1566.0407              1582.4882
 Red. masses --     5.6982                 5.6982                 6.1339
 Frc consts  --     8.2337                 8.2337                 9.0504
 IR Inten    --    62.7300                62.7300                 0.0000

                    88                     89                     90
                    EU                     EU                     B1G
 Frequencies --  1625.5552              1625.5553              1657.7805
 Red. masses --     5.3443                 5.3443                 6.1056
 Frc consts  --     8.3205                 8.3205                 9.8863
 IR Inten    --   498.5999               498.6000                 0.0000

                    91                     92                     93
                    EU                     EU                     B2G
 Frequencies --  3164.1366              3164.1366              3164.2092
 Red. masses --     1.0876                 1.0876                 1.0879
 Frc consts  --     6.4152                 6.4152                 6.4174
 IR Inten    --    26.8958                26.8958                 0.0000

                    94                     95                     96
                    A1G                    A2G                    EU
 Frequencies --  3164.2453              3231.0353              3231.4162
 Red. masses --     1.0873                 1.0881                 1.0883
 Frc consts  --     6.4143                 6.6929                 6.6954
 IR Inten    --     0.0000                 0.0000                 4.6657

                    97                     98                     99
                    EU                     B2G                    B1G
 Frequencies --  3231.4162              3231.5654              3251.2754
 Red. masses --     1.0883                 1.0884                 1.1044
 Frc consts  --     6.6954                 6.6965                 6.8781
 IR Inten    --     4.6657                 0.0000                 0.0000

                   100                    101                    102
                    EU                     EU                     A1G
 Frequencies --  3251.4381              3251.4381              3251.8218
 Red. masses --     1.1044                 1.1044                 1.1043
 Frc consts  --     6.8788                 6.8788                 6.8800
 IR Inten    --    46.4309                46.4309                 0.0000

 - Thermochemistry -
 -------------------
 Temperature   298.150 Kelvin.  Pressure   1.00000 Atm.
 Atom     1 has atomic number  6 and mass  12.00000

 Molecular mass:   308.10620 amu.
 Principal axes and moments of inertia in atomic units:
                           1         2         3
     Eigenvalues --  6829.646876829.64687**********
           X            0.06243   0.99805   0.00000
           Y            0.99805  -0.06243   0.00000
           Z            0.00000   0.00000   1.00000
 This molecule is an oblate symmetric top.
 Rotational symmetry number  8.
 Warning -- assumption of classical behavior for rotation
           may cause significant error
 Rotational temperatures (Kelvin)      0.01268     0.01268     0.00634
 Rotational constants (GHZ):           0.26425     0.26425     0.13213
    2 imaginary frequencies ignored.
 Zero-point vibrational energy     697394.4 (Joules/Mol)
                                  166.68127 (Kcal/Mol)
 Warning -- explicit consideration of  21 degrees of freedom as
           vibrations may cause significant error
 Vibrational temperatures:    107.30   107.30   108.96   113.18   117.13
          (Kelvin)            196.29   211.75   258.68   258.68   393.68
                              437.05   437.05   443.76   472.84   502.10
                              502.10   547.65   584.32   599.13   599.13
                              670.11   928.79   929.56   955.37   955.37
                              982.68   997.08   997.08  1040.80  1059.19
                             1061.14  1080.39  1080.39  1120.35  1120.35
                             1120.94  1122.10  1165.23  1165.23  1189.78
                             1197.54  1278.64  1280.09  1280.09  1282.08
                             1385.04  1391.91  1391.91  1394.00  1402.69
                             1402.69  1412.43  1414.87  1445.54  1469.59
                             1469.59  1514.23  1561.67  1561.67  1564.18
                             1564.22  1710.33  1714.85  1714.85  1729.16
                             1739.19  1818.83  1818.83  1946.27  1961.30
                             1961.30  1981.47  1994.67  2029.15  2029.15
                             2039.96  2086.98  2086.98  2098.18  2109.56
                             2184.52  2228.53  2253.18  2253.18  2276.84
                             2338.81  2338.81  2385.17  4552.48  4552.48
                             4552.59  4552.64  4648.73  4649.28  4649.28
                             4649.50  4677.85  4678.09  4678.09  4678.64

 Zero-point correction=                           0.265624 (Hartree/Particle)
 Thermal correction to Energy=                    0.282147
 Thermal correction to Enthalpy=                  0.283091
 Thermal correction to Gibbs Free Energy=         0.223390
 Sum of electronic and zero-point Energies=           -987.917043
 Sum of electronic and thermal Energies=              -987.900520
 Sum of electronic and thermal Enthalpies=            -987.899576
 Sum of electronic and thermal Free Energies=         -987.959277

                     E (Thermal)             CV                S
                      KCal/Mol        Cal/Mol-Kelvin    Cal/Mol-Kelvin
 Total                  177.050             68.157            125.652
 Electronic               0.000              0.000              0.000
 Translational            0.889              2.981             43.072
 Rotational               0.889              2.981             30.677
 Vibrational            175.273             62.195             51.903
 Vibration     1          0.599              1.966              4.029
 Vibration     2          0.599              1.966              4.029
 Vibration     3          0.599              1.965              3.999
 Vibration     4          0.600              1.964              3.924
 Vibration     5          0.600              1.962              3.857
 Vibration     6          0.614              1.917              2.853
 Vibration     7          0.617              1.906              2.708
 Vibration     8          0.629              1.867              2.331
 Vibration     9          0.629              1.867              2.331
 Vibration    10          0.676              1.722              1.573
 Vibration    11          0.695              1.667              1.396
 Vibration    12          0.695              1.667              1.396
 Vibration    13          0.698              1.658              1.371
 Vibration    14          0.712              1.618              1.267
 Vibration    15          0.726              1.577              1.171
 Vibration    16          0.726              1.577              1.171
 Vibration    17          0.750              1.511              1.037
 Vibration    18          0.771              1.457              0.940
 Vibration    19          0.780              1.435              0.904
 Vibration    20          0.780              1.435              0.904
 Vibration    21          0.823              1.326              0.750

 1\1\GINC-TERMINUS\Freq\RB3LYP\6-31G(d)\C20H12N4\FRODOX\22-Jan-2018\0\\
 #N Geom=AllCheck Guess=TCheck SCRF=Check Test GenChk RB3LYP/6-31G(d) F
 req\\RotationSameMolecule/Porphin.xyz\\0,1\C,0.680998543,-4.2892381715
 ,0.\C,-0.680998543,-4.2892381715,0.\C,-1.0803642275,-2.8840412278,0.\C
 ,1.0803642275,-2.8840412278,0.\N,0.,-2.0654896128,0.\C,2.4054469066,-2
 .4054469066,0.\C,2.8840412278,-1.0803642275,0.\N,2.0654896128,0.,0.\C,
 2.8840412278,1.0803642275,0.\C,4.2892381715,-0.680998543,0.\C,4.289238
 1715,0.680998543,0.\C,2.4054469066,2.4054469066,0.\C,1.0803642275,2.88

 Normal termination of Gaussian 09 at Mon Jan 22 17:51:05 2018.
