 Gaussian 09, Revision B.01,
 Gaussian 09:  EM64L-G09RevB.01 12-Aug-2010

 ------------------------------
 #B3LYP/6-311G** fopt test freq
 ------------------------------

 ------------------------
 Sugars/D_-_Fructuose.xyz
 ------------------------
 Symbolic Z-matrix:
 Charge =  0 Multiplicity = 1

 SCF Done:  E(RB3LYP) =  -687.337002320     A.U. after   14 cycles
 SCF Done:  E(RB3LYP) =  -687.348392169     A.U. after   15 cycles
 SCF Done:  E(RB3LYP) =  -687.351852741     A.U. after   14 cycles
 SCF Done:  E(RB3LYP) =  -687.354198843     A.U. after   14 cycles
 SCF Done:  E(RB3LYP) =  -687.355550612     A.U. after   13 cycles
 SCF Done:  E(RB3LYP) =  -687.356556222     A.U. after   13 cycles
 SCF Done:  E(RB3LYP) =  -687.357262456     A.U. after   14 cycles
 SCF Done:  E(RB3LYP) =  -687.357780111     A.U. after   13 cycles
 SCF Done:  E(RB3LYP) =  -687.358493482     A.U. after   15 cycles
 SCF Done:  E(RB3LYP) =  -687.359503614     A.U. after   12 cycles
 SCF Done:  E(RB3LYP) =  -687.365651476     A.U. after   11 cycles
 SCF Done:  E(RB3LYP) =  -687.365655597     A.U. after    8 cycles
 SCF Done:  E(RB3LYP) =  -687.365658576     A.U. after   10 cycles
 SCF Done:  E(RB3LYP) =  -687.365658558     A.U. after    8 cycles
 SCF Done:  E(RB3LYP) =  -687.365658379     A.U. after    8 cycles
 SCF Done:  E(RB3LYP) =  -687.365658201     A.U. after    8 cycles
 SCF Done:  E(RB3LYP) =  -687.365658248     A.U. after    8 cycles
 SCF Done:  E(RB3LYP) =  -687.365658298     A.U. after    7 cycles
 SCF Done:  E(RB3LYP) =  -687.365658431     A.U. after    7 cycles
 Optimization completed.
    -- Stationary point found.
 Normal termination of Gaussian 09 at Mon Jan 22 20:19:35 2018.

 ----------------------------------------------------------------------
 #N Geom=AllCheck Guess=TCheck SCRF=Check Test GenChk RB3LYP/6-311G(d,p
 ) Freq
 ----------------------------------------------------------------------

 Sugars/D_-_Fructuose.xyz
 ------------------------
 Redundant internal coordinates taken from checkpoint file:
 /home/g09scr/Gau-7619.chk
 Charge =  0 Multiplicity = 1

                         Standard orientation:
 ---------------------------------------------------------------------
 Center     Atomic      Atomic             Coordinates (Angstroms)
 Number     Number       Type             X           Y           Z
 ---------------------------------------------------------------------
      1          8           0       -0.152595   -0.410911   -1.545581
      2          8           0       -1.996905    0.089751    1.558616
      3          8           0        0.377729    2.018235   -0.085790
      4          8           0       -4.155588   -0.220253   -0.052946
      5          8           0        2.758913    1.005972   -0.558880
      6          8           0        3.906137   -1.229441    0.281212
      7          6           0       -0.411490   -0.289954   -0.146563
      8          6           0       -1.843077    0.167639    0.145562
      9          6           0        0.606162    0.724158    0.412876
     10          6           0       -2.897212   -0.696435   -0.535055
     11          6           0        2.029044    0.280663    0.086419
     12          6           0        2.541993   -1.064840    0.562569
     13          1           0       -0.262352   -1.248738    0.369601
     14          1           0       -1.956873    1.200008   -0.204526
     15          1           0        0.480623    0.734667    1.502667
     16          1           0       -2.827464   -0.591689   -1.624348
     17          1           0       -2.746657   -1.749475   -0.255168
     18          1           0       -0.523800   -1.239080   -1.861278
     19          1           0        2.359949   -1.158689    1.641446
     20          1           0        1.941499   -1.840959    0.064436
     21          1           0       -2.934035    0.240285    1.732188
     22          1           0        1.107121    2.205948   -0.694835
     23          1           0       -4.845175   -0.832007   -0.323899
     24          1           0        4.153127   -0.474482   -0.274177
 ---------------------------------------------------------------------

 SCF Done:  E(RB3LYP) =  -687.365658431     A.U. after    1 cycles

 The electronic state is 1-A.
 Alpha  occ. eigenvalues --  -19.14281 -19.14006 -19.13840 -19.11940 -19.11564
 Alpha  occ. eigenvalues --  -19.11519 -10.28027 -10.24384 -10.23994 -10.23699
 Alpha  occ. eigenvalues --  -10.23411 -10.22711  -1.08902  -1.05610  -1.04722
 Alpha  occ. eigenvalues --   -1.02985  -1.02177  -1.01858  -0.79681  -0.76197
 Alpha  occ. eigenvalues --   -0.71869  -0.66113  -0.60248  -0.57622  -0.56779
 Alpha  occ. eigenvalues --   -0.54547  -0.53597  -0.50674  -0.50065  -0.49005
 Alpha  occ. eigenvalues --   -0.48573  -0.45924  -0.44782  -0.43539  -0.43143
 Alpha  occ. eigenvalues --   -0.41744  -0.38953  -0.37742  -0.37423  -0.36569
 Alpha  occ. eigenvalues --   -0.35291  -0.34624  -0.30762  -0.30053  -0.29010
 Alpha  occ. eigenvalues --   -0.28395  -0.28160  -0.27424
 Alpha virt. eigenvalues --   -0.04056   0.00651   0.01645   0.05057   0.05646
 Alpha virt. eigenvalues --    0.07454   0.07854   0.09302   0.09606   0.10435
 Alpha virt. eigenvalues --    0.12178   0.12976   0.13640   0.14977   0.16956

 Mulliken atomic charges:
              1
     1  O   -0.404905
     2  O   -0.419230
     3  O   -0.398885
     4  O   -0.418277
     5  O   -0.328203
     6  O   -0.401576
     7  C    0.004664
     8  C    0.052026
     9  C    0.042052
    10  C   -0.004478
    11  C    0.127971
    12  C    0.058522
    13  H    0.113714
    14  H    0.142445
    15  H    0.157195
    16  H    0.099917
    17  H    0.085769
    18  H    0.246161
    19  H    0.124327
    20  H    0.118587
    21  H    0.251986
    22  H    0.251686
    23  H    0.251299
    24  H    0.247232
 Sum of Mulliken atomic charges =   0.00000

 Dipole moment (field-independent basis, Debye):
    X=             -3.7671    Y=             -3.2044    Z=             -0.8394  Tot=              5.0164
 Quadrupole moment (field-independent basis, Debye-Ang):
   XX=            -70.3162   YY=            -72.3801   ZZ=            -70.7737
   XY=             10.5568   XZ=              3.5367   YZ=              3.3161

  Exact polarizability: 107.314   1.796  80.118  -2.645  -2.802  75.017
 Approx polarizability: 129.748   4.704 120.232  -9.260  -8.748 114.746

                     1                      2                      3
                     A                      A                      A
 Frequencies --    42.3757                51.7156                63.6071
 Red. masses --     5.6176                 3.6714                 4.7012
 Frc consts  --     0.0059                 0.0058                 0.0112
 IR Inten    --     1.4607                 1.0862                 1.1532

                     4                      5                      6
                     A                      A                      A
 Frequencies --    86.4278               111.4058               135.0214
 Red. masses --     5.0746                 4.2251                 3.5458
 Frc consts  --     0.0223                 0.0309                 0.0381
 IR Inten    --     4.6825                 8.3641                 1.3314

                     7                      8                      9
                     A                      A                      A
 Frequencies --   164.7607               217.7621               234.3927
 Red. masses --     7.3347                 2.0827                 2.4455
 Frc consts  --     0.1173                 0.0582                 0.0792
 IR Inten    --    10.7256                33.8339                25.9753

                    10                     11                     12
                     A                      A                      A
 Frequencies --   255.0554               260.2581               269.6386
 Red. masses --     1.1643                 2.6093                 5.0568
 Frc consts  --     0.0446                 0.1041                 0.2166
 IR Inten    --   154.2402                16.7757                22.1345

                    13                     14                     15
                     A                      A                      A
 Frequencies --   312.3208               316.3127               346.8170
 Red. masses --     3.5247                 1.2782                 1.4543
 Frc consts  --     0.2026                 0.0753                 0.1031
 IR Inten    --    44.5861                56.3546                40.6312

                    16                     17                     18
                     A                      A                      A
 Frequencies --   387.1871               414.2781               419.9312
 Red. masses --     2.9168                 2.5343                 1.7706
 Frc consts  --     0.2576                 0.2563                 0.1840
 IR Inten    --     9.7145                 4.2522               115.9560

                    19                     20                     21
                     A                      A                      A
 Frequencies --   462.5602               487.6330               500.7345
 Red. masses --     2.0233                 3.4883                 3.2415
 Frc consts  --     0.2551                 0.4887                 0.4789
 IR Inten    --    29.0535                22.4386                39.7321

                    22                     23                     24
                     A                      A                      A
 Frequencies --   598.0660               699.1093               761.7535
 Red. masses --     3.4297                 4.2044                 3.4656
 Frc consts  --     0.7228                 1.2107                 1.1848
 IR Inten    --    41.2964                12.2895                 6.4212

                    25                     26                     27
                     A                      A                      A
 Frequencies --   835.2136               892.4892               927.5629
 Red. masses --     3.7952                 2.4827                 2.6278
 Frc consts  --     1.5598                 1.1651                 1.3321
 IR Inten    --    11.4296                 7.2670                17.4738

                    28                     29                     30
                     A                      A                      A
 Frequencies --   987.2561              1034.6633              1046.6420
 Red. masses --     2.4448                 4.1984                 4.2219
 Frc consts  --     1.4039                 2.6481                 2.7250
 IR Inten    --    18.2317               149.6630                34.7413

                    31                     32                     33
                     A                      A                      A
 Frequencies --  1070.0995              1080.3926              1099.8623
 Red. masses --     4.0766                 3.2141                 3.1599
 Frc consts  --     2.7504                 2.2104                 2.2521
 IR Inten    --   130.8889                87.5523                 9.6652

                    34                     35                     36
                     A                      A                      A
 Frequencies --  1121.9472              1135.0792              1157.0742
 Red. masses --     2.7053                 3.6836                 1.8226
 Frc consts  --     2.0063                 2.7962                 1.4376
 IR Inten    --    24.7754                80.4968                24.8386

                    37                     38                     39
                     A                      A                      A
 Frequencies --  1210.7715              1231.8417              1252.8537
 Red. masses --     1.1363                 1.1340                 1.2307
 Frc consts  --     0.9815                 1.0138                 1.1382
 IR Inten    --    49.8366                31.5558                41.7481

                    40                     41                     42
                     A                      A                      A
 Frequencies --  1262.0570              1266.4146              1272.8663
 Red. masses --     1.3891                 1.1241                 1.1881
 Frc consts  --     1.3036                 1.0622                 1.1342
 IR Inten    --    11.7755                12.1019                17.9970

                    43                     44                     45
                     A                      A                      A
 Frequencies --  1313.0678              1344.5034              1358.8771
 Red. masses --     1.4306                 1.2835                 1.4009
 Frc consts  --     1.4533                 1.3670                 1.5242
 IR Inten    --   120.2854                30.1534                 4.9280

                    46                     47                     48
                     A                      A                      A
 Frequencies --  1381.2591              1405.9429              1431.4777
 Red. masses --     1.2120                 1.3774                 1.3620
 Frc consts  --     1.3624                 1.6041                 1.6444
 IR Inten    --     9.7338                 9.4132                22.0767

                    49                     50                     51
                     A                      A                      A
 Frequencies --  1442.8265              1446.9722              1456.9065
 Red. masses --     1.3621                 1.3559                 1.6738
 Frc consts  --     1.6706                 1.6726                 2.0933
 IR Inten    --    63.9792                58.1245                16.0875

                    52                     53                     54
                     A                      A                      A
 Frequencies --  1483.1495              1516.9764              1772.2054
 Red. masses --     1.0836                 1.0855                11.1819
 Frc consts  --     1.4043                 1.4718                20.6917
 IR Inten    --    11.6313                 4.0894               135.9614

                    55                     56                     57
                     A                      A                      A
 Frequencies --  2971.7829              2976.5919              2995.7728
 Red. masses --     1.0605                 1.0674                 1.0799
 Frc consts  --     5.5184                 5.5720                 5.7105
 IR Inten    --    42.4320                43.4724                25.6341

                    58                     59                     60
                     A                      A                      A
 Frequencies --  3014.2045              3025.8410              3031.2107
 Red. masses --     1.0928                 1.0936                 1.0834
 Frc consts  --     5.8495                 5.8996                 5.8651
 IR Inten    --    14.2331                16.1073                17.7309

                    61                     62                     63
                     A                      A                      A
 Frequencies --  3045.4986              3713.3576              3728.7898
 Red. masses --     1.0928                 1.0649                 1.0650
 Frc consts  --     5.9716                 8.6518                 8.7247
 IR Inten    --    57.1134                50.0178                97.7831

                    64                     65                     66
                     A                      A                      A
 Frequencies --  3798.7690              3851.9523              3854.7551
 Red. masses --     1.0656                 1.0669                 1.0669
 Frc consts  --     9.0597                 9.3270                 9.3405
 IR Inten    --    68.4664                32.6222                46.8737

 - Thermochemistry -
 -------------------
 Temperature   298.150 Kelvin.  Pressure   1.00000 Atm.
 Atom     1 has atomic number  8 and mass  15.99491

 Molecular mass:   180.06339 amu.
 Principal axes and moments of inertia in atomic units:
                           1         2         3
     Eigenvalues --   944.983334185.321924356.25967
           X            0.99998   0.00321   0.00617
           Y           -0.00339   0.99958   0.02880
           Z           -0.00608  -0.02882   0.99957
 This molecule is an asymmetric top.
 Rotational symmetry number  1.
 Warning -- assumption of classical behavior for rotation
           may cause significant error
 Rotational temperatures (Kelvin)      0.09166     0.02069     0.01988
 Rotational constants (GHZ):           1.90981     0.43121     0.41429
 Zero-point vibrational energy     507497.2 (Joules/Mol)
                                  121.29473 (Kcal/Mol)
 Warning -- explicit consideration of  22 degrees of freedom as
           vibrations may cause significant error
 Vibrational temperatures:     60.97    74.41    91.52   124.35   160.29
          (Kelvin)            194.27   237.05   313.31   337.24   366.97
                              374.45   387.95   449.36   455.10   498.99
                              557.08   596.05   604.19   665.52   701.59
                              720.44   860.48  1005.86  1095.99  1201.68
                             1284.09  1334.55  1420.44  1488.65  1505.88
                             1539.63  1554.44  1582.45  1614.23  1633.12
                             1664.77  1742.03  1772.34  1802.57  1815.82
                             1822.09  1831.37  1889.21  1934.44  1955.12
                             1987.32  2022.84  2059.57  2075.90  2081.87
                             2096.16  2133.92  2182.59  2549.81  4275.73
                             4282.65  4310.24  4336.76  4353.50  4361.23
                             4381.79  5342.69  5364.89  5465.57  5542.09
                             5546.13

 Zero-point correction=                           0.193295 (Hartree/Particle)
 Thermal correction to Energy=                    0.207567
 Thermal correction to Enthalpy=                  0.208511
 Thermal correction to Gibbs Free Energy=         0.151826
 Sum of electronic and zero-point Energies=           -687.172363
 Sum of electronic and thermal Energies=              -687.158092
 Sum of electronic and thermal Enthalpies=            -687.157148
 Sum of electronic and thermal Free Energies=         -687.213832

                     E (Thermal)             CV                S
                      KCal/Mol        Cal/Mol-Kelvin    Cal/Mol-Kelvin
 Total                  130.250             50.566            119.303
 Electronic               0.000              0.000              0.000
 Translational            0.889              2.981             41.471
 Rotational               0.889              2.981             31.222
 Vibrational            128.473             44.604             46.610
 Vibration     1          0.595              1.980              5.145
 Vibration     2          0.596              1.977              4.751
 Vibration     3          0.597              1.972              4.342
 Vibration     4          0.601              1.959              3.739
 Vibration     5          0.607              1.940              3.244
 Vibration     6          0.613              1.918              2.873
 Vibration     7          0.623              1.886              2.494
 Vibration     8          0.646              1.814              1.978
 Vibration     9          0.654              1.788              1.845
 Vibration    10          0.665              1.754              1.695
 Vibration    11          0.668              1.745              1.660
 Vibration    12          0.674              1.729              1.599
 Vibration    13          0.701              1.650              1.350
 Vibration    14          0.703              1.642              1.329
 Vibration    15          0.725              1.582              1.181
 Vibration    16          0.756              1.498              1.011
 Vibration    17          0.778              1.439              0.912
 Vibration    18          0.783              1.427              0.892
 Vibration    19          0.820              1.333              0.759
 Vibration    20          0.844              1.277              0.690
 Vibration    21          0.856              1.248              0.656
 Vibration    22          0.956              1.036              0.453

 Normal termination of Gaussian 09 at Mon Jan 22 20:26:00 2018.
