 Gaussian 09, Revision B.01,
 Gaussian 09:  EM64L-G09RevB.01 12-Aug-2010

 ------------------------------
 #B3LYP/6-311G** fopt test freq
 ------------------------------

 --------------------------
 Sugars/R-R-R-Fructuose.xyz
 --------------------------
 Symbolic Z-matrix:
 Charge =  0 Multiplicity = 1

 SCF Done:  E(RB3LYP) =  -687.313822496     A.U. after   14 cycles
 SCF Done:  E(RB3LYP) =  -687.323877765     A.U. after   15 cycles
 SCF Done:  E(RB3LYP) =  -687.327894224     A.U. after   13 cycles
 SCF Done:  E(RB3LYP) =  -687.329255581     A.U. after   12 cycles
 SCF Done:  E(RB3LYP) =  -687.331675286     A.U. after   13 cycles
 SCF Done:  E(RB3LYP) =  -687.334821071     A.U. after   14 cycles
 SCF Done:  E(RB3LYP) =  -687.339680190     A.U. after   15 cycles
 SCF Done:  E(RB3LYP) =  -687.341703230     A.U. after   15 cycles
 SCF Done:  E(RB3LYP) =  -687.343216616     A.U. after   12 cycles
 SCF Done:  E(RB3LYP) =  -687.344112477     A.U. after   12 cycles
 SCF Done:  E(RB3LYP) =  -687.365968812     A.U. after   10 cycles
 SCF Done:  E(RB3LYP) =  -687.365987147     A.U. after   10 cycles
 SCF Done:  E(RB3LYP) =  -687.365998204     A.U. after    9 cycles
 SCF Done:  E(RB3LYP) =  -687.366004138     A.U. after    9 cycles
 SCF Done:  E(RB3LYP) =  -687.366005224     A.U. after    8 cycles
 SCF Done:  E(RB3LYP) =  -687.366005902     A.U. after    8 cycles
 SCF Done:  E(RB3LYP) =  -687.366006227     A.U. after    7 cycles
 SCF Done:  E(RB3LYP) =  -687.366006384     A.U. after    7 cycles
 SCF Done:  E(RB3LYP) =  -687.366006448     A.U. after    6 cycles
 Optimization completed.
    -- Stationary point found.
 Normal termination of Gaussian 09 at Mon Jan 22 21:02:59 2018.

 ----------------------------------------------------------------------
 #N Geom=AllCheck Guess=TCheck SCRF=Check Test GenChk RB3LYP/6-311G(d,p
 ) Freq
 ----------------------------------------------------------------------

 Sugars/R-R-R-Fructuose.xyz
 --------------------------
 Redundant internal coordinates taken from checkpoint file:
 /home/g09scr/Gau-8664.chk
 Charge =  0 Multiplicity = 1

                         Standard orientation:
 ---------------------------------------------------------------------
 Center     Atomic      Atomic             Coordinates (Angstroms)
 Number     Number       Type             X           Y           Z
 ---------------------------------------------------------------------
      1          6           0       -2.653802   -0.809442    0.491913
      2          8           0       -4.036230   -0.778129    0.218974
      3          1           0       -4.394330   -1.642736    0.437579
      4          1           0       -2.132455   -1.649920    0.015764
      5          1           0       -2.436000   -0.887360    1.569272
      6          6           0       -2.007838    0.464740   -0.002013
      7          8           0       -2.618662    1.336312   -0.577673
      8          6           0       -0.502508    0.676859    0.255538
      9          6           0        0.360579   -0.368196   -0.476105
     10          6           0        1.848557    0.007323   -0.535180
     11          6           0        2.467758    0.329282    0.820470
     12          1           0        2.205445   -0.455472    1.539484
     13          1           0        2.101918    1.297710    1.176815
     14          8           0        3.884223    0.362576    0.597439
     15          1           0        4.330209    0.395422    1.447737
     16          1           0       -0.322448    0.561319    1.333761
     17          8           0       -0.147466    1.972583   -0.162360
     18          1           0       -0.953796    2.340322   -0.564218
     19          1           0        0.016091   -0.452734   -1.517386
     20          8           0        0.205520   -1.614112    0.194705
     21          1           0        0.918129   -2.170841   -0.151384
     22          1           0        1.973990    0.868401   -1.198139
     23          8           0        2.486818   -1.147717   -1.089887
     24          1           0        3.423148   -1.059608   -0.866602
 ---------------------------------------------------------------------

 SCF Done:  E(RB3LYP) =  -687.366006448     A.U. after    1 cycles

 The electronic state is 1-A.
 Alpha  occ. eigenvalues --  -19.13535 -19.13115 -19.12688 -19.12368 -19.12366
 Alpha  occ. eigenvalues --  -19.11908 -10.27250 -10.23981 -10.23632 -10.23369
 Alpha  occ. eigenvalues --  -10.22782 -10.22575  -1.07965  -1.05685  -1.03858
 Alpha  occ. eigenvalues --   -1.03456  -1.02256  -1.01436  -0.79112  -0.75842
 Alpha  occ. eigenvalues --   -0.71296  -0.66424  -0.59474  -0.57272  -0.54760
 Alpha  occ. eigenvalues --   -0.53853  -0.52627  -0.51204  -0.49542  -0.48596
 Alpha  occ. eigenvalues --   -0.48339  -0.46743  -0.45108  -0.43669  -0.42867
 Alpha  occ. eigenvalues --   -0.40602  -0.38529  -0.37628  -0.36681  -0.36194
 Alpha  occ. eigenvalues --   -0.35317  -0.34778  -0.29948  -0.29369  -0.29175
 Alpha  occ. eigenvalues --   -0.28700  -0.27590  -0.27316
 Alpha virt. eigenvalues --   -0.03340   0.01833   0.02642   0.05000   0.05608
 Alpha virt. eigenvalues --    0.06153   0.08919   0.09067   0.10690   0.11720
 Alpha virt. eigenvalues --    0.12393   0.13809   0.14483   0.15546   0.16656

 Mulliken atomic charges:
              1
     1  C    0.016729
     2  O   -0.378085
     3  H    0.241208
     4  H    0.140303
     5  H    0.111567
     6  C    0.151753
     7  O   -0.297954
     8  C    0.011658
     9  C    0.040213
    10  C    0.035710
    11  C   -0.002646
    12  H    0.095483
    13  H    0.124665
    14  O   -0.430661
    15  H    0.253019
    16  H    0.132090
    17  O   -0.405709
    18  H    0.248761
    19  H    0.123169
    20  O   -0.416807
    21  H    0.254211
    22  H    0.131312
    23  O   -0.435938
    24  H    0.255950
 Sum of Mulliken atomic charges =   0.00000

 Dipole moment (field-independent basis, Debye):
    X=              2.0810    Y=             -2.5292    Z=              2.8701  Tot=              4.3549
 Quadrupole moment (field-independent basis, Debye-Ang):
   XX=            -70.4443   YY=            -70.7307   ZZ=            -67.7116
   XY=              8.0294   XZ=              2.7903   YZ=             -0.2713

  Exact polarizability: 105.880   0.777  83.554   2.557  -3.967  72.513
 Approx polarizability: 129.032  -4.867 125.246   5.609  -9.957 109.909

                     1                      2                      3
                     A                      A                      A
 Frequencies --    36.7188                49.1511                80.9783
 Red. masses --     6.1670                 3.5307                 6.3490
 Frc consts  --     0.0049                 0.0050                 0.0245
 IR Inten    --     0.9527                 4.5894                 1.9536

                     4                      5                      6
                     A                      A                      A
 Frequencies --    95.9830               121.5475               147.5065
 Red. masses --     3.9204                 3.5984                 4.2572
 Frc consts  --     0.0213                 0.0313                 0.0546
 IR Inten    --     6.3519                 4.5898                14.9818

                     7                      8                      9
                     A                      A                      A
 Frequencies --   170.7121               223.4359               237.5647
 Red. masses --     4.9689                 1.1651                 4.9491
 Frc consts  --     0.0853                 0.0343                 0.1646
 IR Inten    --     3.9205                86.2009                 4.8083

                    10                     11                     12
                     A                      A                      A
 Frequencies --   253.7896               261.8861               314.4691
 Red. masses --     4.6175                 1.1403                 5.3707
 Frc consts  --     0.1752                 0.0461                 0.3129
 IR Inten    --    32.6918                97.2668                 0.7712

                    13                     14                     15
                     A                      A                      A
 Frequencies --   322.6603               370.1982               378.7787
 Red. masses --     4.6271                 5.5140                 6.1125
 Frc consts  --     0.2838                 0.4452                 0.5167
 IR Inten    --     7.4152                13.6520                 3.0854

                    16                     17                     18
                     A                      A                      A
 Frequencies --   410.7205               478.6114               504.2370
 Red. masses --     4.2641                 1.4496                 1.6377
 Frc consts  --     0.4238                 0.1956                 0.2453
 IR Inten    --    13.4877                99.8122                24.1243

                    19                     20                     21
                     A                      A                      A
 Frequencies --   514.2508               538.3684               568.0030
 Red. masses --     1.4676                 1.3464                 2.8390
 Frc consts  --     0.2287                 0.2299                 0.5397
 IR Inten    --    35.1822               115.1528                48.4208

                    22                     23                     24
                     A                      A                      A
 Frequencies --   583.2568               683.5912               734.2931
 Red. masses --     2.0881                 4.1987                 3.7435
 Frc consts  --     0.4185                 1.1560                 1.1892
 IR Inten    --     8.5608                69.9279                 0.8553

                    25                     26                     27
                     A                      A                      A
 Frequencies --   848.2325               866.8304               946.1315
 Red. masses --     2.7612                 3.5202                 2.3959
 Frc consts  --     1.1705                 1.5584                 1.2636
 IR Inten    --     6.6429                42.7536                15.2189

                    28                     29                     30
                     A                      A                      A
 Frequencies --   991.9331              1029.0720              1043.4296
 Red. masses --     2.3160                 6.8000                 3.6370
 Frc consts  --     1.3426                 4.2428                 2.3330
 IR Inten    --    12.5647               216.2373                 9.6212

                    31                     32                     33
                     A                      A                      A
 Frequencies --  1054.3743              1075.6188              1107.0725
 Red. masses --     5.3171                 2.8869                 3.4562
 Frc consts  --     3.4827                 1.9679                 2.4957
 IR Inten    --   118.4041                33.1655                72.6945

                    34                     35                     36
                     A                      A                      A
 Frequencies --  1115.9719              1132.8660              1163.9664
 Red. masses --     2.5308                 4.2849                 2.3848
 Frc consts  --     1.8570                 3.2400                 1.9037
 IR Inten    --     8.7731                54.5353                 5.6864

                    37                     38                     39
                     A                      A                      A
 Frequencies --  1208.5999              1239.5100              1256.5088
 Red. masses --     1.1351                 1.1553                 1.1741
 Frc consts  --     0.9769                 1.0458                 1.0921
 IR Inten    --    62.2545                21.9083                47.3038

                    40                     41                     42
                     A                      A                      A
 Frequencies --  1263.8162              1268.4728              1277.6186
 Red. masses --     1.2584                 1.1412                 1.1022
 Frc consts  --     1.1842                 1.0819                 1.0600
 IR Inten    --    18.4688                 6.6412                15.8036

                    43                     44                     45
                     A                      A                      A
 Frequencies --  1295.6505              1337.1450              1360.6901
 Red. masses --     1.1896                 1.2430                 1.2207
 Frc consts  --     1.1766                 1.3094                 1.3316
 IR Inten    --    22.4523                30.8773                44.5602

                    46                     47                     48
                     A                      A                      A
 Frequencies --  1389.9356              1412.0756              1415.0320
 Red. masses --     1.2772                 1.3709                 1.3579
 Frc consts  --     1.4538                 1.6106                 1.6020
 IR Inten    --     0.0500                77.0001                97.2996

                    49                     50                     51
                     A                      A                      A
 Frequencies --  1450.3179              1455.4417              1462.4597
 Red. masses --     1.4098                 1.4744                 1.5694
 Frc consts  --     1.7472                 1.8402                 1.9776
 IR Inten    --    15.4689                 7.0835                16.6418

                    52                     53                     54
                     A                      A                      A
 Frequencies --  1484.4560              1521.5551              1793.3597
 Red. masses --     1.2199                 1.0829                10.9833
 Frc consts  --     1.5839                 1.4771                20.8121
 IR Inten    --    11.2474                 4.7441               143.8143

                    55                     56                     57
                     A                      A                      A
 Frequencies --  2965.6319              2976.2068              2997.8640
 Red. masses --     1.0689                 1.0819                 1.0819
 Frc consts  --     5.5388                 5.6463                 5.7288
 IR Inten    --    26.3222                12.2283                46.6356

                    58                     59                     60
                     A                      A                      A
 Frequencies --  3010.5989              3026.7442              3051.0884
 Red. masses --     1.0575                 1.0893                 1.0894
 Frc consts  --     5.6472                 5.8797                 5.9750
 IR Inten    --    37.3036                 8.4550                 9.6569

                    61                     62                     63
                     A                      A                      A
 Frequencies --  3069.2902              3644.5995              3743.7329
 Red. masses --     1.1034                 1.0646                 1.0650
 Frc consts  --     6.1244                 8.3314                 8.7942
 IR Inten    --    43.1425               128.2306               106.2381

                    64                     65                     66
                     A                      A                      A
 Frequencies --  3769.4410              3850.8054              3856.9378
 Red. masses --     1.0654                 1.0667                 1.0669
 Frc consts  --     8.9187                 9.3195                 9.3514
 IR Inten    --    78.8515                43.3378                44.8335

 - Thermochemistry -
 -------------------
 Temperature   298.150 Kelvin.  Pressure   1.00000 Atm.
 Atom     1 has atomic number  6 and mass  12.00000

 Molecular mass:   180.06339 amu.
 Principal axes and moments of inertia in atomic units:
                           1         2         3
     Eigenvalues --   964.164353942.091504442.46554
           X            0.99993   0.01181   0.00104
           Y           -0.01181   0.99993  -0.00324
           Z           -0.00108   0.00323   0.99999
 This molecule is an asymmetric top.
 Rotational symmetry number  1.
 Warning -- assumption of classical behavior for rotation
           may cause significant error
 Rotational temperatures (Kelvin)      0.08983     0.02197     0.01950
 Rotational constants (GHZ):           1.87182     0.45781     0.40625
 Zero-point vibrational energy     510277.9 (Joules/Mol)
                                  121.95934 (Kcal/Mol)
 Warning -- explicit consideration of  22 degrees of freedom as
           vibrations may cause significant error
 Vibrational temperatures:     52.83    70.72   116.51   138.10   174.88
          (Kelvin)            212.23   245.62   321.47   341.80   365.15
                              376.80   452.45   464.24   532.63   544.98
                              590.93   688.61   725.48   739.89   774.59
                              817.23   839.18   983.53  1056.48  1220.42
                             1247.17  1361.27  1427.17  1480.60  1501.26
                             1517.01  1547.57  1592.83  1605.63  1629.94
                             1674.69  1738.90  1783.38  1807.83  1818.35
                             1825.05  1838.21  1864.15  1923.85  1957.73
                             1999.80  2031.66  2035.91  2086.68  2094.05
                             2104.15  2135.80  2189.18  2580.24  4266.88
                             4282.09  4313.25  4331.57  4354.80  4389.83
                             4416.02  5243.76  5386.39  5423.38  5540.44
                             5549.27

 Zero-point correction=                           0.194355 (Hartree/Particle)
 Thermal correction to Energy=                    0.208117
 Thermal correction to Enthalpy=                  0.209061
 Thermal correction to Gibbs Free Energy=         0.153494
 Sum of electronic and zero-point Energies=           -687.171652
 Sum of electronic and thermal Energies=              -687.157889
 Sum of electronic and thermal Enthalpies=            -687.156945
 Sum of electronic and thermal Free Energies=         -687.212512

                     E (Thermal)             CV                S
                      KCal/Mol        Cal/Mol-Kelvin    Cal/Mol-Kelvin
 Total                  130.595             49.590            116.950
 Electronic               0.000              0.000              0.000
 Translational            0.889              2.981             41.471
 Rotational               0.889              2.981             31.202
 Vibrational            128.818             43.629             44.277
 Vibration     1          0.594              1.982              5.429
 Vibration     2          0.595              1.978              4.851
 Vibration     3          0.600              1.962              3.867
 Vibration     4          0.603              1.952              3.534
 Vibration     5          0.609              1.931              3.076
 Vibration     6          0.617              1.905              2.704
 Vibration     7          0.626              1.879              2.428
 Vibration     8          0.649              1.805              1.931
 Vibration     9          0.656              1.783              1.821
 Vibration    10          0.665              1.756              1.704
 Vibration    11          0.669              1.743              1.649
 Vibration    12          0.702              1.646              1.339
 Vibration    13          0.708              1.630              1.297
 Vibration    14          0.742              1.533              1.079
 Vibration    15          0.749              1.515              1.044
 Vibration    16          0.775              1.447              0.924
 Vibration    17          0.835              1.297              0.714
 Vibration    18          0.860              1.241              0.648
 Vibration    19          0.869              1.218              0.623
 Vibration    20          0.893              1.165              0.569
 Vibration    21          0.924              1.100              0.508
 Vibration    22          0.940              1.068              0.479

 Optimization completed.
    -- Stationary point found.
 Normal termination of Gaussian 09 at Mon Jan 22 21:09:30 2018.
