 Gaussian 09, Revision B.01,
 Gaussian 09:  EM64L-G09RevB.01 12-Aug-2010

 ------------------------------
 #B3LYP/6-311G** fopt test freq
 ------------------------------

 --------------------------
 Sugars/R-S-R-Fructuose.xyz
 --------------------------
 Symbolic Z-matrix:
 Charge =  0 Multiplicity = 1

 SCF Done:  E(RB3LYP) =  -687.305229502     A.U. after   14 cycles
 SCF Done:  E(RB3LYP) =  -687.317758363     A.U. after   13 cycles
 SCF Done:  E(RB3LYP) =  -687.322877973     A.U. after   12 cycles
 SCF Done:  E(RB3LYP) =  -687.323673248     A.U. after   14 cycles
 SCF Done:  E(RB3LYP) =  -687.326365129     A.U. after   12 cycles
 SCF Done:  E(RB3LYP) =  -687.328611450     A.U. after   12 cycles
 SCF Done:  E(RB3LYP) =  -687.331633778     A.U. after   15 cycles
 SCF Done:  E(RB3LYP) =  -687.333928436     A.U. after   12 cycles
 SCF Done:  E(RB3LYP) =  -687.338220625     A.U. after   13 cycles
 SCF Done:  E(RB3LYP) =  -687.340230151     A.U. after   13 cycles
 SCF Done:  E(RB3LYP) =  -687.362435050     A.U. after   12 cycles
 SCF Done:  E(RB3LYP) =  -687.362447700     A.U. after   10 cycles
 SCF Done:  E(RB3LYP) =  -687.362446475     A.U. after   10 cycles
 SCF Done:  E(RB3LYP) =  -687.362455115     A.U. after    9 cycles
 SCF Done:  E(RB3LYP) =  -687.362457914     A.U. after    9 cycles
 SCF Done:  E(RB3LYP) =  -687.362459795     A.U. after    8 cycles
 SCF Done:  E(RB3LYP) =  -687.362460716     A.U. after    8 cycles
 SCF Done:  E(RB3LYP) =  -687.362461200     A.U. after    7 cycles
 SCF Done:  E(RB3LYP) =  -687.362461360     A.U. after    7 cycles
 Optimization completed.
    -- Stationary point found.
 Normal termination of Gaussian 09 at Mon Jan 22 22:21:10 2018.

 ----------------------------------------------------------------------
 #N Geom=AllCheck Guess=TCheck SCRF=Check Test GenChk RB3LYP/6-311G(d,p
 ) Freq
 ----------------------------------------------------------------------

 Sugars/R-S-R-Fructuose.xyz
 --------------------------
 Redundant internal coordinates taken from checkpoint file:
 /home/g09scr/Gau-11646.chk
 Charge =  0 Multiplicity = 1

                         Standard orientation:
 ---------------------------------------------------------------------
 Center     Atomic      Atomic             Coordinates (Angstroms)
 Number     Number       Type             X           Y           Z
 ---------------------------------------------------------------------
      1          6           0        3.197389    0.609005   -0.115356
      2          8           0        4.370356   -0.172115   -0.101167
      3          1           0        5.102222    0.406350    0.129114
      4          1           0        3.168464    1.319311   -0.956973
      5          1           0        3.057201    1.201486    0.798558
      6          6           0        1.981303   -0.289896   -0.222842
      7          8           0        2.048315   -1.496316   -0.166176
      8          6           0        0.640284    0.441490   -0.393565
      9          6           0       -0.537745   -0.531709   -0.186824
     10          6           0       -1.891389    0.125345   -0.458092
     11          6           0       -3.061928   -0.773843   -0.085286
     12          1           0       -2.976806   -1.045264    0.969287
     13          1           0       -3.052496   -1.684103   -0.697746
     14          8           0       -4.240727    0.005105   -0.334174
     15          1           0       -4.971899   -0.381804    0.154326
     16          1           0        0.599497    0.786518   -1.444774
     17          8           0        0.668550    1.541233    0.497587
     18          1           0       -0.249494    1.836091    0.604015
     19          1           0       -0.418792   -1.323670   -0.940035
     20          8           0       -0.545369   -1.092075    1.116749
     21          1           0        0.244514   -1.642799    1.175839
     22          1           0       -1.948025    0.343032   -1.534895
     23          8           0       -1.999466    1.352851    0.270055
     24          1           0       -2.935144    1.593029    0.252082
 ---------------------------------------------------------------------

 SCF Done:  E(RB3LYP) =  -687.362461360     A.U. after    1 cycles

 The electronic state is 1-A.
 Alpha  occ. eigenvalues --  -19.13621 -19.12913 -19.12185 -19.11877 -19.11415
 Alpha  occ. eigenvalues --  -19.10890 -10.26591 -10.23540 -10.23332 -10.23213
 Alpha  occ. eigenvalues --  -10.22675 -10.22618  -1.06697  -1.05525  -1.03482
 Alpha  occ. eigenvalues --   -1.02596  -1.01901  -1.01481  -0.78850  -0.75524
 Alpha  occ. eigenvalues --   -0.71897  -0.66066  -0.59398  -0.55518  -0.54141
 Alpha  occ. eigenvalues --   -0.53139  -0.52818  -0.52157  -0.49678  -0.48097
 Alpha  occ. eigenvalues --   -0.46760  -0.46177  -0.44504  -0.43454  -0.42678
 Alpha  occ. eigenvalues --   -0.41240  -0.38545  -0.37507  -0.37030  -0.35635
 Alpha  occ. eigenvalues --   -0.34910  -0.33615  -0.29970  -0.29493  -0.29063
 Alpha  occ. eigenvalues --   -0.28185  -0.26654  -0.25498
 Alpha virt. eigenvalues --   -0.03000   0.01923   0.02870   0.04236   0.06782
 Alpha virt. eigenvalues --    0.07411   0.07647   0.09681   0.10964   0.11511
 Alpha virt. eigenvalues --    0.12459   0.13203   0.14117   0.15806   0.17647

 Mulliken atomic charges:
              1
     1  C    0.009146
     2  O   -0.380152
     3  H    0.240686
     4  H    0.110455
     5  H    0.139031
     6  C    0.174699
     7  O   -0.306789
     8  C    0.046714
     9  C    0.023935
    10  C    0.042492
    11  C    0.011489
    12  H    0.128541
    13  H    0.097094
    14  O   -0.431450
    15  H    0.254703
    16  H    0.113098
    17  O   -0.424535
    18  H    0.270509
    19  H    0.115028
    20  O   -0.407456
    21  H    0.250698
    22  H    0.115935
    23  O   -0.454935
    24  H    0.261062
 Sum of Mulliken atomic charges =   0.00000

 Dipole moment (field-independent basis, Debye):
    X=             -2.1660    Y=              1.2116    Z=             -0.7746  Tot=              2.5999
 Quadrupole moment (field-independent basis, Debye-Ang):
   XX=            -54.2308   YY=            -73.1451   ZZ=            -71.3104
   XY=             12.7876   XZ=             -1.3662   YZ=             -1.1116

  Exact polarizability: 109.765   2.369  83.337   0.153   0.243  68.989
 Approx polarizability: 123.925  -1.571 130.314   0.226   1.581 106.089

                     1                      2                      3
                     A                      A                      A
 Frequencies --    34.8257                54.5237                67.1458
 Red. masses --     5.2695                 5.0042                 5.5968
 Frc consts  --     0.0038                 0.0088                 0.0149
 IR Inten    --     8.9996                 5.2137                 0.8998

                     4                      5                      6
                     A                      A                      A
 Frequencies --    92.0918               109.2758               128.6301
 Red. masses --     3.6915                 4.6685                 3.0857
 Frc consts  --     0.0184                 0.0328                 0.0301
 IR Inten    --     6.9306                11.0668                 4.9592

                     7                      8                      9
                     A                      A                      A
 Frequencies --   195.9715               210.7866               243.1171
 Red. masses --     2.9118                 1.4369                 4.8917
 Frc consts  --     0.0659                 0.0376                 0.1703
 IR Inten    --    33.4719                65.1824                16.2458

                    10                     11                     12
                     A                      A                      A
 Frequencies --   258.0251               286.2180               289.6538
 Red. masses --     4.7156                 1.1832                 5.4473
 Frc consts  --     0.1850                 0.0571                 0.2693
 IR Inten    --     1.1295                87.7169                14.9602

                    13                     14                     15
                     A                      A                      A
 Frequencies --   317.9390               325.0085               361.5015
 Red. masses --     5.9039                 5.3741                 5.5311
 Frc consts  --     0.3516                 0.3345                 0.4259
 IR Inten    --     0.0490                 2.6423                 1.9651

                    16                     17                     18
                     A                      A                      A
 Frequencies --   402.4638               453.8433               481.8696
 Red. masses --     4.6389                 1.1154                 1.1027
 Frc consts  --     0.4427                 0.1354                 0.1509
 IR Inten    --     7.3396               183.9097               101.4478

                    19                     20                     21
                     A                      A                      A
 Frequencies --   517.8851               533.6528               553.2542
 Red. masses --     1.5018                 2.1756                 2.1329
 Frc consts  --     0.2373                 0.3650                 0.3847
 IR Inten    --    36.4003                28.9029                21.1244

                    22                     23                     24
                     A                      A                      A
 Frequencies --   637.3689               733.2745               785.2178
 Red. masses --     4.4041                 3.4594                 5.0466
 Frc consts  --     1.0541                 1.0959                 1.8333
 IR Inten    --    59.1218                 5.3099                43.3051

                    25                     26                     27
                     A                      A                      A
 Frequencies --   819.3866               839.1991               888.9815
 Red. masses --     3.6891                 4.2594                 2.7639
 Frc consts  --     1.4593                 1.7674                 1.2869
 IR Inten    --    28.8585                21.3232                10.0485

                    28                     29                     30
                     A                      A                      A
 Frequencies --   969.5766               993.2154              1026.6899
 Red. masses --     1.8760                 2.3634                 4.0002
 Frc consts  --     1.0391                 1.3736                 2.4844
 IR Inten    --    11.4948                10.0864                14.0180

                    31                     32                     33
                     A                      A                      A
 Frequencies --  1059.9166              1071.2314              1102.7153
 Red. masses --     5.0944                 3.1189                 3.6197
 Frc consts  --     3.3720                 2.1087                 2.5933
 IR Inten    --   231.7043                27.7943                 9.5432

                    34                     35                     36
                     A                      A                      A
 Frequencies --  1111.9048              1146.6858              1157.5037
 Red. masses --     2.3959                 2.8069                 2.7392
 Frc consts  --     1.7452                 2.1746                 2.1623
 IR Inten    --    27.7447                22.5902               108.8054

                    37                     38                     39
                     A                      A                      A
 Frequencies --  1223.9235              1226.8655              1242.0309
 Red. masses --     1.1261                 1.2452                 1.2137
 Frc consts  --     0.9939                 1.1043                 1.1031
 IR Inten    --    17.5701                 4.3961                54.5876

                    40                     41                     42
                     A                      A                      A
 Frequencies --  1262.3532              1277.0725              1286.2993
 Red. masses --     1.1961                 1.1376                 1.2025
 Frc consts  --     1.1230                 1.0931                 1.1723
 IR Inten    --    49.9343                 7.4021                53.8292

                    43                     44                     45
                     A                      A                      A
 Frequencies --  1301.9677              1329.4079              1343.3701
 Red. masses --     1.1701                 1.2833                 1.2819
 Frc consts  --     1.1687                 1.3362                 1.3631
 IR Inten    --    57.2242                12.3272               126.1342

                    46                     47                     48
                     A                      A                      A
 Frequencies --  1388.1996              1408.6064              1436.1005
 Red. masses --     1.2598                 1.3324                 1.3515
 Frc consts  --     1.4304                 1.5577                 1.6422
 IR Inten    --     7.5454                 0.1914                38.7643

                    49                     50                     51
                     A                      A                      A
 Frequencies --  1440.8289              1459.8675              1484.0963
 Red. masses --     1.4211                 1.6973                 1.3815
 Frc consts  --     1.7382                 2.1312                 1.7928
 IR Inten    --     1.4850                 2.6438                30.4284

                    52                     53                     54
                     A                      A                      A
 Frequencies --  1487.3054              1514.9495              1798.0487
 Red. masses --     1.3191                 1.0842                11.7425
 Frc consts  --     1.7192                 1.4660                22.3672
 IR Inten    --    35.2737                 5.4593               128.5542

                    55                     56                     57
                     A                      A                      A
 Frequencies --  2903.6317              2968.1515              2978.7683
 Red. masses --     1.0793                 1.0668                 1.0827
 Frc consts  --     5.3616                 5.5373                 5.6604
 IR Inten    --    39.0163                37.4753                16.9524

                    58                     59                     60
                     A                      A                      A
 Frequencies --  2995.4596              3011.3577              3021.1744
 Red. masses --     1.0824                 1.0650                 1.0906
 Frc consts  --     5.7221                 5.6900                 5.8652
 IR Inten    --    41.6137                55.7447                13.2745

                    61                     62                     63
                     A                      A                      A
 Frequencies --  3088.6901              3688.9710              3776.2005
 Red. masses --     1.1007                 1.0661                 1.0653
 Frc consts  --     6.1870                 8.5480                 8.9504
 IR Inten    --    23.3646               340.3713                69.9162

                    64                     65                     66
                     A                      A                      A
 Frequencies --  3798.2891              3851.1190              3857.6845
 Red. masses --     1.0656                 1.0667                 1.0669
 Frc consts  --     9.0581                 9.3212                 9.3550
 IR Inten    --    68.0076                42.4758                47.5843

 - Thermochemistry -
 -------------------
 Temperature   298.150 Kelvin.  Pressure   1.00000 Atm.
 Atom     1 has atomic number  6 and mass  12.00000

 Molecular mass:   180.06339 amu.
 Principal axes and moments of inertia in atomic units:
                           1         2         3
     Eigenvalues --   724.803604340.020214755.41372
           X            0.99989   0.01455   0.00032
           Y           -0.01455   0.99986  -0.00846
           Z           -0.00045   0.00845   0.99996
 This molecule is an asymmetric top.
 Rotational symmetry number  1.
 Warning -- assumption of classical behavior for rotation
           may cause significant error
 Rotational temperatures (Kelvin)      0.11950     0.01996     0.01821
 Rotational constants (GHZ):           2.48997     0.41584     0.37951
 Zero-point vibrational energy     509078.9 (Joules/Mol)
                                  121.67277 (Kcal/Mol)
 Warning -- explicit consideration of  21 degrees of freedom as
           vibrations may cause significant error
 Vibrational temperatures:     50.11    78.45    96.61   132.50   157.22
          (Kelvin)            185.07   281.96   303.27   349.79   371.24
                              411.80   416.75   457.44   467.61   520.12
                              579.05   652.98   693.30   745.12   767.81
                              796.01   917.03  1055.02  1129.75  1178.91
                             1207.42  1279.04  1395.00  1429.01  1477.18
                             1524.98  1541.26  1586.56  1599.78  1649.82
                             1665.39  1760.95  1765.18  1787.00  1816.24
                             1837.42  1850.70  1873.24  1912.72  1932.81
                             1997.31  2026.67  2066.23  2073.03  2100.42
                             2135.28  2139.90  2179.67  2586.99  4177.67
                             4270.50  4285.78  4309.79  4332.67  4346.79
                             4443.93  5307.60  5433.10  5464.88  5540.89
                             5550.34

 Zero-point correction=                           0.193898 (Hartree/Particle)
 Thermal correction to Energy=                    0.207806
 Thermal correction to Enthalpy=                  0.208751
 Thermal correction to Gibbs Free Energy=         0.152780
 Sum of electronic and zero-point Energies=           -687.168563
 Sum of electronic and thermal Energies=              -687.154655
 Sum of electronic and thermal Enthalpies=            -687.153711
 Sum of electronic and thermal Free Energies=         -687.209682

                     E (Thermal)             CV                S
                      KCal/Mol        Cal/Mol-Kelvin    Cal/Mol-Kelvin
 Total                  130.400             49.838            117.801
 Electronic               0.000              0.000              0.000
 Translational            0.889              2.981             41.471
 Rotational               0.889              2.981             31.082
 Vibrational            128.623             43.876             45.248
 Vibration     1          0.594              1.983              5.534
 Vibration     2          0.596              1.976              4.646
 Vibration     3          0.598              1.970              4.235
 Vibration     4          0.602              1.955              3.615
 Vibration     5          0.606              1.942              3.282
 Vibration     6          0.611              1.925              2.966
 Vibration     7          0.636              1.845              2.171
 Vibration     8          0.643              1.824              2.037
 Vibration     9          0.659              1.774              1.780
 Vibration    10          0.667              1.749              1.675
 Vibration    11          0.684              1.699              1.496
 Vibration    12          0.686              1.693              1.476
 Vibration    13          0.704              1.639              1.321
 Vibration    14          0.709              1.625              1.285
 Vibration    15          0.736              1.552              1.116
 Vibration    16          0.768              1.465              0.954
 Vibration    17          0.812              1.352              0.784
 Vibration    18          0.838              1.290              0.705
 Vibration    19          0.873              1.210              0.615
 Vibration    20          0.889              1.176              0.579
 Vibration    21          0.909              1.133              0.537

 Optimization completed.
    -- Stationary point found.
 Normal termination of Gaussian 09 at Mon Jan 22 22:27:30 2018.
