 Gaussian 09, Revision B.01,
 Gaussian 09:  EM64L-G09RevB.01 12-Aug-2010

 -----------------------
 #B3LYP/6-31G* fopt test
 -----------------------

 -------------------------------------
 NeoConformation/tetramethylsilane.xyz
 -------------------------------------
 Symbolic Z-matrix:
 Charge =  0 Multiplicity = 1

 SCF Done:  E(RB3LYP) =  -449.191092540     A.U. after   11 cycles
 SCF Done:  E(RB3LYP) =  -449.191777923     A.U. after    7 cycles
 Optimization completed.
    -- Stationary point found.

                         Standard orientation:
 ---------------------------------------------------------------------
 Center     Atomic      Atomic             Coordinates (Angstroms)
 Number     Number       Type             X           Y           Z
 ---------------------------------------------------------------------
      1         14           0        0.000000    0.000000    0.000000
      2          6           0        1.094734    1.094734    1.094734
      3          1           0        1.742247    1.742247    0.490825
      4          1           0        0.490825    1.742247    1.742247
      5          1           0        1.742247    0.490825    1.742247
      6          6           0       -1.094734   -1.094734    1.094734
      7          1           0       -0.490825   -1.742247    1.742247
      8          1           0       -1.742247   -0.490825    1.742247
      9          1           0       -1.742247   -1.742247    0.490825
     10          6           0       -1.094734    1.094734   -1.094734
     11          1           0       -1.742247    0.490825   -1.742247
     12          1           0       -1.742247    1.742247   -0.490825
     13          1           0       -0.490825    1.742247   -1.742247
     14          6           0        1.094734   -1.094734   -1.094734
     15          1           0        0.490825   -1.742247   -1.742247
     16          1           0        1.742247   -0.490825   -1.742247
     17          1           0        1.742247   -1.742247   -0.490825
 ---------------------------------------------------------------------

 The electronic state is 1-A1.
 Alpha  occ. eigenvalues --  -66.11127 -10.15506 -10.15506 -10.15506 -10.15506
 Alpha  occ. eigenvalues --   -5.25579  -3.61451  -3.61451  -3.61451  -0.71111
 Alpha  occ. eigenvalues --   -0.66951  -0.66951  -0.66951  -0.45037  -0.40574
 Alpha  occ. eigenvalues --   -0.40574  -0.40574  -0.39091  -0.39091  -0.37394
 Alpha  occ. eigenvalues --   -0.37394  -0.37394  -0.28850  -0.28850  -0.28850
 Alpha virt. eigenvalues --    0.07508   0.10295   0.10295   0.10295   0.14029
 Alpha virt. eigenvalues --    0.14029   0.14029   0.15139   0.15139   0.20272
 Alpha virt. eigenvalues --    0.20272   0.20272   0.20606   0.20606   0.20606

 Mulliken atomic charges:
              1
     1  Si   0.737110
     2  C   -0.654238
     3  H    0.156654
     4  H    0.156654
     5  H    0.156654
     6  C   -0.654238
     7  H    0.156654
     8  H    0.156654
     9  H    0.156654
    10  C   -0.654238
    11  H    0.156654
    12  H    0.156654
    13  H    0.156654
    14  C   -0.654238
    15  H    0.156654
    16  H    0.156654
    17  H    0.156654
 Sum of Mulliken atomic charges =   0.00000

 Dipole moment (field-independent basis, Debye):
    X=              0.0000    Y=              0.0000    Z=              0.0000  Tot=              0.0000
 Quadrupole moment (field-independent basis, Debye-Ang):
   XX=            -41.5767   YY=            -41.5767   ZZ=            -41.5767
   XY=              0.0000   XZ=              0.0000   YZ=              0.0000

 1\1\GINC-TERMINUS\FOpt\RB3LYP\6-31G(d)\C4H12Si1\FRODOX\04-Jan-2018\0\\
 #B3LYP/6-31G* fopt test\\NeoConformation/tetramethylsilane.xyz\\0,1\Si
 ,0.,0.,0.\C,1.0947338803,1.0947338803,1.0947338803\H,1.7422472337,1.74
 22472337,0.49082485\H,0.49082485,1.7422472337,1.7422472337\H,1.7422472
 337,0.49082485,1.7422472337\C,-1.0947338803,-1.0947338803,1.0947338803
 \H,-0.49082485,-1.7422472337,1.7422472337\H,-1.7422472337,-0.49082485,
 1.7422472337\H,-1.7422472337,-1.7422472337,0.49082485\C,-1.0947338803,
 1.0947338803,-1.0947338803\H,-1.7422472337,0.49082485,-1.7422472337\H,

 Normal termination of Gaussian 09 at Thu Jan  4 15:11:27 2018.
