 Gaussian 09, Revision B.01,
 Gaussian 09:  EM64L-G09RevB.01 12-Aug-2010

 -------------------------------------------
 #B3LYP/6-31G* fopt test freq Symmetry=PG=TD
 -------------------------------------------

 ------------------------------
 NeoConformation/neopentane.xyz
 ------------------------------
 Symbolic Z-matrix:
 Charge =  0 Multiplicity = 1

 SCF Done:  E(RB3LYP) =  -197.770633381     A.U. after   12 cycles
 SCF Done:  E(RB3LYP) =  -197.772894429     A.U. after   12 cycles
 SCF Done:  E(RB3LYP) =  -197.772975583     A.U. after   12 cycles
 SCF Done:  E(RB3LYP) =  -197.773002880     A.U. after   11 cycles
 SCF Done:  E(RB3LYP) =  -197.772988495     A.U. after   12 cycles
 Optimization completed.
    -- Stationary point found.
 Normal termination of Gaussian 09 at Thu Apr 26 11:51:25 2018.

 ----------------------------------------------------------------------
 #N Geom=AllCheck Guess=TCheck SCRF=Check Test GenChk RB3LYP/6-31G(d) F
 req
 ----------------------------------------------------------------------

 NeoConformation/neopentane.xyz
 ------------------------------
 Redundant internal coordinates taken from checkpoint file:
 /home/g09scr/Gau-5748.chk
 Charge =  0 Multiplicity = 1

                         Standard orientation:
 ---------------------------------------------------------------------
 Center     Atomic      Atomic             Coordinates (Angstroms)
 Number     Number       Type             X           Y           Z
 ---------------------------------------------------------------------
      1          6           0        0.194327    1.490204   -0.337531
      2          6           0       -0.000044   -0.000019   -0.000083
      3          6           0        1.140293   -0.822017   -0.629743
      4          6           0        0.016388   -0.186490    1.528773
      5          6           0       -1.351009   -0.481701   -0.561506
      6          1           0        0.186167    1.655310   -1.422123
      7          1           0       -0.604094    2.102700    0.099643
      8          1           0        1.151017    1.862581    0.049596
      9          1           0        2.117506   -0.500283   -0.248661
     10          1           0        1.029354   -1.890190   -0.405226
     11          1           0        1.153933   -0.709727   -1.721048
     12          1           0       -0.786904    0.388086    2.006508
     13          1           0       -0.119479   -1.240667    1.800732
     14          1           0        0.968327    0.149082    1.958842
     15          1           0       -1.392215   -0.362543   -1.651341
     16          1           0       -1.518903   -1.541948   -0.334832
     17          1           0       -2.184439    0.087732   -0.131548
 ---------------------------------------------------------------------

 SCF Done:  E(RB3LYP) =  -197.772988495     A.U. after    1 cycles

 The electronic state is 1-A.
 Alpha  occ. eigenvalues --  -10.19236 -10.16765 -10.16764 -10.16764 -10.16763
 Alpha  occ. eigenvalues --   -0.81218  -0.67745  -0.67744  -0.67744  -0.52750
 Alpha  occ. eigenvalues --   -0.44119  -0.44118  -0.44117  -0.39452  -0.39451
 Alpha  occ. eigenvalues --   -0.35854  -0.35853  -0.35852  -0.31477  -0.31475
 Alpha  occ. eigenvalues --   -0.31474
 Alpha virt. eigenvalues --    0.07583   0.13963   0.13964   0.13966   0.16457
 Alpha virt. eigenvalues --    0.16458   0.16458   0.17948   0.17948   0.21857
 Alpha virt. eigenvalues --    0.22624   0.22625   0.22626   0.25182   0.25183

 Mulliken atomic charges:
              1
     1  C   -0.435381
     2  C    0.103504
     3  C   -0.435381
     4  C   -0.435452
     5  C   -0.435353
     6  H    0.136513
     7  H    0.136496
     8  H    0.136497
     9  H    0.136508
    10  H    0.136504
    11  H    0.136501
    12  H    0.136516
    13  H    0.136512
    14  H    0.136516
    15  H    0.136504
    16  H    0.136502
    17  H    0.136495
 Sum of Mulliken atomic charges =   0.00000

 Dipole moment (field-independent basis, Debye):
    X=              0.0000    Y=              0.0000    Z=              0.0001  Tot=              0.0001
 Quadrupole moment (field-independent basis, Debye-Ang):
   XX=            -35.0496   YY=            -35.0500   ZZ=            -35.0497
   XY=              0.0000   XZ=              0.0001   YZ=             -0.0003

  Exact polarizability:  54.079   0.001  54.078   0.000  -0.001  54.078
 Approx polarizability:  71.992   0.000  71.991   0.000  -0.001  71.991

                     1                      2                      3
                     A                      A                      A
 Frequencies --   208.9816               277.5026               278.9170
 Red. masses --     1.0079                 1.0310                 1.0309
 Frc consts  --     0.0259                 0.0468                 0.0473
 IR Inten    --     0.0000                 0.0000                 0.0001

                     4                      5                      6
                     A                      A                      A
 Frequencies --   281.7869               328.6895               329.6312
 Red. masses --     1.0305                 2.1881                 2.1929
 Frc consts  --     0.0482                 0.1393                 0.1404
 IR Inten    --     0.0001                 0.0000                 0.0000

                     7                      8                      9
                     A                      A                      A
 Frequencies --   415.6582               416.7136               417.3825
 Red. masses --     2.1142                 2.1193                 2.1196
 Frc consts  --     0.2152                 0.2168                 0.2176
 IR Inten    --     0.0106                 0.0103                 0.0108

                    10                     11                     12
                     A                      A                      A
 Frequencies --   732.0434               933.9901               934.6306
 Red. masses --     3.4840                 2.0050                 2.0017
 Frc consts  --     1.1000                 1.0305                 1.0302
 IR Inten    --     0.0000                 0.5963                 0.6002

                    13                     14                     15
                     A                      A                      A
 Frequencies --   934.7745               970.1356               971.0150
 Red. masses --     2.0046                 1.2022                 1.2023
 Frc consts  --     1.0320                 0.6666                 0.6679
 IR Inten    --     0.5988                 0.0003                 0.0001

                    16                     17                     18
                     A                      A                      A
 Frequencies --   973.0979              1101.0533              1101.4863
 Red. masses --     1.2030                 1.3578                 1.3565
 Frc consts  --     0.6712                 0.9699                 0.9697
 IR Inten    --     0.0005                 0.0000                 0.0001

                    19                     20                     21
                     A                      A                      A
 Frequencies --  1288.9375              1289.2619              1289.4054
 Red. masses --     2.6300                 2.6336                 2.6290
 Frc consts  --     2.5743                 2.5792                 2.5752
 IR Inten    --     5.8769                 5.9168                 5.8962

                    22                     23                     24
                     A                      A                      A
 Frequencies --  1427.1497              1427.3433              1428.7594
 Red. masses --     1.2399                 1.2401                 1.2386
 Frc consts  --     1.4879                 1.4886                 1.4897
 IR Inten    --     5.0311                 5.0609                 5.0211

                    25                     26                     27
                     A                      A                      A
 Frequencies --  1466.6830              1512.2891              1512.5595
 Red. masses --     1.2257                 1.0489                 1.0487
 Frc consts  --     1.5534                 1.4133                 1.4135
 IR Inten    --     0.0029                 0.0040                 0.0004

                    28                     29                     30
                     A                      A                      A
 Frequencies --  1512.9029              1520.7544              1521.4750
 Red. masses --     1.0488                 1.0420                 1.0421
 Frc consts  --     1.4143                 1.4198                 1.4213
 IR Inten    --     0.0032                 0.0050                 0.0030

                    31                     32                     33
                     A                      A                      A
 Frequencies --  1546.4914              1547.0019              1548.0254
 Red. masses --     1.0608                 1.0609                 1.0607
 Frc consts  --     1.4948                 1.4959                 1.4976
 IR Inten    --     7.7768                 7.7492                 7.7251

                    34                     35                     36
                     A                      A                      A
 Frequencies --  3032.1953              3032.9729              3033.4955
 Red. masses --     1.0344                 1.0344                 1.0344
 Frc consts  --     5.6035                 5.6062                 5.6080
 IR Inten    --    36.8981                37.0450                37.2169

                    37                     38                     39
                     A                      A                      A
 Frequencies --  3044.6456              3098.3752              3098.4804
 Red. masses --     1.0363                 1.1032                 1.1031
 Frc consts  --     5.6600                 6.2399                 6.2398
 IR Inten    --     0.0311                 0.1444                 0.1279

                    40                     41                     42
                     A                      A                      A
 Frequencies --  3099.2812              3099.7344              3099.9169
 Red. masses --     1.1029                 1.1021                 1.1024
 Frc consts  --     6.2415                 6.2389                 6.2413
 IR Inten    --     0.0346                 0.0260                 0.2684

                    43                     44                     45
                     A                      A                      A
 Frequencies --  3106.8384              3107.1431              3107.2837
 Red. masses --     1.1012                 1.1012                 1.1012
 Frc consts  --     6.2629                 6.2641                 6.2645
 IR Inten    --    96.4133                96.3856                96.3187

 - Thermochemistry -
 -------------------
 Temperature   298.150 Kelvin.  Pressure   1.00000 Atm.
 Atom     1 has atomic number  6 and mass  12.00000

 Molecular mass:    72.09390 amu.
 Principal axes and moments of inertia in atomic units:
                           1         2         3
     Eigenvalues --   409.19258 409.20996 409.22715
           X            0.99922   0.03545   0.01742
           Y           -0.03441   0.99780  -0.05661
           Z           -0.01938   0.05596   0.99824
 This molecule is an asymmetric top.
 Rotational symmetry number  1.
 Rotational temperatures (Kelvin)      0.21167     0.21166     0.21165
 Rotational constants (GHZ):           4.41049     4.41031     4.41012
 Zero-point vibrational energy     421126.7 (Joules/Mol)
                                  100.65170 (Kcal/Mol)
 Warning -- explicit consideration of   9 degrees of freedom as
           vibrations may cause significant error
 Vibrational temperatures:    300.68   399.26   401.30   405.43   472.91
          (Kelvin)            474.27   598.04   599.56   600.52  1053.25
                             1343.80  1344.72  1344.93  1395.81  1397.07
                             1400.07  1584.17  1584.79  1854.49  1854.96
                             1855.16  2053.35  2053.63  2055.66  2110.23
                             2175.84  2176.23  2176.73  2188.02  2189.06
                             2225.05  2225.79  2227.26  4362.65  4363.77
                             4364.52  4380.56  4457.87  4458.02  4459.17
                             4459.82  4460.08  4470.04  4470.48  4470.68

 Zero-point correction=                           0.160399 (Hartree/Particle)
 Thermal correction to Energy=                    0.167280
 Thermal correction to Enthalpy=                  0.168224
 Thermal correction to Gibbs Free Energy=         0.131314
 Sum of electronic and zero-point Energies=           -197.612590
 Sum of electronic and thermal Energies=              -197.605709
 Sum of electronic and thermal Enthalpies=            -197.604765
 Sum of electronic and thermal Free Energies=         -197.641674

                     E (Thermal)             CV                S
                      KCal/Mol        Cal/Mol-Kelvin    Cal/Mol-Kelvin
 Total                  104.970             25.760             77.682
 Electronic               0.000              0.000              0.000
 Translational            0.889              2.981             38.743
 Rotational               0.889              2.981             25.730
 Vibrational            103.192             19.798             13.210
 Vibration     1          0.642              1.827              2.053
 Vibration     2          0.678              1.715              1.549
 Vibration     3          0.679              1.713              1.540
 Vibration     4          0.681              1.707              1.523
 Vibration     5          0.712              1.618              1.267
 Vibration     6          0.712              1.616              1.262
 Vibration     7          0.779              1.436              0.907
 Vibration     8          0.780              1.434              0.903
 Vibration     9          0.780              1.432              0.901

 Normal termination of Gaussian 09 at Thu Apr 26 11:52:00 2018.
