 Gaussian 09, Revision B.01,
 Gaussian 09:  EM64L-G09RevB.01 12-Aug-2010

 ----------------------
 #B3LYP/3-21G fopt test
 ----------------------

 ------------------------------
 SymmetricEnantiomers/r-tmp.xyz
 ------------------------------
 Symbolic Z-matrix:
 Charge =  0 Multiplicity = 1

 SCF Done:  E(RB3LYP) =  -9590.11966496     A.U. after   15 cycles
 SCF Done:  E(RB3LYP) =  -9590.12916335     A.U. after   14 cycles
 SCF Done:  E(RB3LYP) =  -9590.12959636     A.U. after   11 cycles
 SCF Done:  E(RB3LYP) =  -9590.12966508     A.U. after    9 cycles
 SCF Done:  E(RB3LYP) =  -9590.12967479     A.U. after    9 cycles
 SCF Done:  E(RB3LYP) =  -9590.12967553     A.U. after    8 cycles
 Optimization completed.
    -- Stationary point found.

                         Standard orientation:
 ---------------------------------------------------------------------
 Center     Atomic      Atomic             Coordinates (Angstroms)
 Number     Number       Type             X           Y           Z
 ---------------------------------------------------------------------
      1          6           0       -0.460954    0.769684    0.438710
      2         53           0        1.499094   -0.187018   -0.018492
      3          1           0       -0.495143    0.904524    1.515863
      4          9           0       -0.552022    1.975650   -0.225805
      5         35           0       -2.034940   -0.382615   -0.032452
 ---------------------------------------------------------------------

 The electronic state is 1-A.
 Alpha  occ. eigenvalues -- **********-479.55778-175.58103-164.34415-164.34167
 Alpha  occ. eigenvalues -- -164.34166 -62.11245 -55.71682 -55.71214 -55.71206
 Alpha  occ. eigenvalues --  -35.74558 -30.90934 -30.90276 -30.90271 -24.59419
 Alpha  occ. eigenvalues --  -22.83448 -22.83239 -22.83236 -22.82768 -22.82768
 Alpha  occ. eigenvalues --  -10.31279  -8.62829  -6.42360  -6.40702  -6.40674
 Alpha  occ. eigenvalues --   -6.37767  -4.68773  -4.67080  -4.67069  -2.51691
 Alpha  occ. eigenvalues --   -2.51060  -2.51040  -2.49722  -2.49721  -2.06547
 Alpha  occ. eigenvalues --   -2.06022  -2.06013  -2.04574  -2.04573  -1.23407
 Alpha  occ. eigenvalues --   -0.81889  -0.71282  -0.63398  -0.53770  -0.48616
 Alpha  occ. eigenvalues --   -0.47452  -0.37074  -0.34869  -0.30350  -0.29179
 Alpha  occ. eigenvalues --   -0.27415  -0.26771
 Alpha virt. eigenvalues --   -0.08461  -0.01735   0.10307   0.12135   0.34043
 Alpha virt. eigenvalues --    0.38317   0.40163   0.40429   0.57526   0.61353
 Alpha virt. eigenvalues --    0.61913   0.67692   0.70605   0.75396   0.82187

 Mulliken atomic charges:
              1
     1  C   -0.333881
     2  I    0.176142
     3  H    0.287571
     4  F   -0.236446
     5  Br   0.106614
 Sum of Mulliken atomic charges =   0.00000

 Dipole moment (field-independent basis, Debye):
    X=              0.1121    Y=             -0.1370    Z=              1.3811  Tot=              1.3924
 Quadrupole moment (field-independent basis, Debye-Ang):
   XX=            -56.7112   YY=            -58.7725   ZZ=            -56.1458
   XY=             -0.2788   XZ=             -0.8966   YZ=              1.8487

 1\1\GINC-TERMINUS\FOpt\RB3LYP\3-21G\C1H1Br1F1I1\FRODOX\05-Jan-2018\0\\
 #B3LYP/3-21G fopt test\\SymmetricEnantiomers/r-tmp.xyz\\0,1\C,-0.52322
 40372,-0.1880234687,-0.880865549\I,1.1012240623,-0.8869124481,0.475165
 0333\H,-0.0863449595,-0.1109682594,-1.8722333232\F,-1.5659764767,-1.09
 14970459,-0.8557644253\Br,-1.2042795889,1.6436112221,-0.4242507358\\Ve
 rsion=EM64L-G09RevB.01\State=1-A\HF=-9590.1296755\RMSD=2.179e-09\RMSF=
 3.502e-05\Dipole=0.3280287,0.0854755,-0.4303346\Quadrupole=-1.0060314,
 -0.7768899,1.7829213,-0.9801202,0.1976985,-0.189965\PG=C01 [X(C1H1Br1F

 Normal termination of Gaussian 09 at Fri Jan  5 13:34:48 2018.
