 Gaussian 09, Revision B.01,
 Gaussian 09:  EM64L-G09RevB.01 12-Aug-2010

 ----------------------------
 #B3LYP/6-31G* fopt test freq
 ----------------------------

 --------------------------------
 IsomerC6H14/3-methyl-pentane.xyz
 --------------------------------
 Symbolic Z-matrix:
 Charge =  0 Multiplicity = 1

 SCF Done:  E(RB3LYP) =  -237.082627237     A.U. after   12 cycles
 SCF Done:  E(RB3LYP) =  -237.083173877     A.U. after   13 cycles
 SCF Done:  E(RB3LYP) =  -237.083206728     A.U. after   10 cycles
 SCF Done:  E(RB3LYP) =  -237.083212790     A.U. after    9 cycles
 SCF Done:  E(RB3LYP) =  -237.083213438     A.U. after    7 cycles
 Optimization completed.
    -- Stationary point found.
 Normal termination of Gaussian 09 at Tue Jan 23 15:10:10 2018.

 ----------------------------------------------------------------------
 #N Geom=AllCheck Guess=TCheck SCRF=Check Test GenChk RB3LYP/6-31G(d) F
 req
 ----------------------------------------------------------------------

 IsomerC6H14/3-methyl-pentane.xyz
 --------------------------------
 Redundant internal coordinates taken from checkpoint file:
 /home/g09scr/Gau-26475.chk
 Charge =  0 Multiplicity = 1

                         Standard orientation:
 ---------------------------------------------------------------------
 Center     Atomic      Atomic             Coordinates (Angstroms)
 Number     Number       Type             X           Y           Z
 ---------------------------------------------------------------------
      1          6           0       -0.084840   -0.184254    0.000000
      2          6           0        1.311325   -0.826410    0.000000
      3          1           0       -0.831258   -0.995923    0.000000
      4          6           0       -0.326707    0.666278    1.264614
      5          6           0       -0.326707    0.666278   -1.264614
      6          6           0       -0.326707   -0.113502    2.584845
      7          6           0       -0.326707   -0.113502   -2.584845
      8          1           0        2.093039   -0.054511    0.000000
      9          1           0        1.467366   -1.457696    0.881091
     10          1           0        1.467366   -1.457696   -0.881091
     11          1           0        0.431839    1.462172    1.310166
     12          1           0        0.431839    1.462172   -1.310166
     13          1           0       -1.294240    1.176861    1.159390
     14          1           0       -1.294240    1.176861   -1.159390
     15          1           0       -0.576127    0.543933    3.425778
     16          1           0       -0.576127    0.543933   -3.425778
     17          1           0       -1.067828   -0.922609    2.566247
     18          1           0        0.649132   -0.562111    2.800329
     19          1           0       -1.067828   -0.922609   -2.566247
     20          1           0        0.649132   -0.562111   -2.800329
 ---------------------------------------------------------------------

 SCF Done:  E(RB3LYP) =  -237.083213438     A.U. after    1 cycles

 The electronic state is 1-A'.
 Alpha  occ. eigenvalues --  -10.18102 -10.17449 -10.17449 -10.16974 -10.16974
 Alpha  occ. eigenvalues --  -10.16740  -0.80680  -0.74379  -0.70357  -0.64768
 Alpha  occ. eigenvalues --   -0.59321  -0.54920  -0.46156  -0.44908  -0.42618
 Alpha  occ. eigenvalues --   -0.41164  -0.39179  -0.38415  -0.36970  -0.35829
 Alpha  occ. eigenvalues --   -0.34585  -0.33101  -0.31365  -0.30830  -0.30319
 Alpha virt. eigenvalues --    0.08559   0.11928   0.12225   0.12827   0.15254
 Alpha virt. eigenvalues --    0.15410   0.16413   0.17399   0.17494   0.18244
 Alpha virt. eigenvalues --    0.18601   0.20301   0.22692   0.23244   0.24645

 Mulliken atomic charges:
              1
     1  C   -0.056915
     2  C   -0.453013
     3  H    0.113545
     4  C   -0.246068
     5  C   -0.246068
     6  C   -0.448418
     7  C   -0.448418
     8  H    0.136374
     9  H    0.144030
    10  H    0.144030
    11  H    0.126079
    12  H    0.126079
    13  H    0.127230
    14  H    0.127230
    15  H    0.141342
    16  H    0.141342
    17  H    0.140340
    18  H    0.145468
    19  H    0.140340
    20  H    0.145468
 Sum of Mulliken atomic charges =   0.00000

 Dipole moment (field-independent basis, Debye):
    X=             -0.0511    Y=              0.0242    Z=              0.0000  Tot=              0.0565
 Quadrupole moment (field-independent basis, Debye-Ang):
   XX=            -41.2939   YY=            -41.5180   ZZ=            -41.9952
   XY=              0.1646   XZ=              0.0000   YZ=              0.0000

  Exact polarizability:  60.599  -1.877  60.026   0.000   0.000  73.892
 Approx polarizability:  85.712   0.549  85.023   0.000   0.000  85.633

                     1                      2                      3
                    A'                     A"                     A'
 Frequencies --    81.4725                82.7700               205.0745
 Red. masses --     2.2464                 1.4976                 1.9288
 Frc consts  --     0.0088                 0.0060                 0.0478
 IR Inten    --     0.0006                 0.0004                 0.0060

                     4                      5                      6
                    A"                     A'                     A"
 Frequencies --   217.3004               227.8483               272.6449
 Red. masses --     1.0317                 1.3019                 1.2498
 Frc consts  --     0.0287                 0.0398                 0.0547
 IR Inten    --     0.0595                 0.0173                 0.0198

                     7                      8                      9
                    A"                     A'                     A'
 Frequencies --   317.8501               387.8271               439.0517
 Red. masses --     2.1628                 2.6094                 2.1350
 Frc consts  --     0.1287                 0.2312                 0.2425
 IR Inten    --     0.0281                 0.1241                 0.1886

                    10                     11                     12
                    A"                     A'                     A"
 Frequencies --   454.5090               771.2330               777.5589
 Red. masses --     2.1590                 1.7139                 1.1392
 Frc consts  --     0.2628                 0.6006                 0.4058
 IR Inten    --     0.1992                 3.4308                 0.1952

                    13                     14                     15
                    A'                     A"                     A'
 Frequencies --   828.3663               888.5073               970.0156
 Red. masses --     1.3845                 2.1494                 1.2564
 Frc consts  --     0.5597                 0.9998                 0.6965
 IR Inten    --     1.3082                 0.0245                 2.5083

                    16                     17                     18
                    A'                     A"                     A"
 Frequencies --   982.4891              1001.5785              1038.7561
 Red. masses --     1.5580                 1.3228                 1.9792
 Frc consts  --     0.8861                 0.7818                 1.2582
 IR Inten    --     1.4915                 6.2999                 0.0003

                    19                     20                     21
                    A"                     A'                     A'
 Frequencies --  1068.4999              1068.8882              1183.9542
 Red. masses --     1.4445                 3.0155                 2.1071
 Frc consts  --     0.9716                 2.0299                 1.7403
 IR Inten    --     1.8348                 0.0341                 0.8455

                    22                     23                     24
                    A"                     A'                     A"
 Frequencies --  1185.9751              1213.4409              1293.8859
 Red. masses --     1.8063                 1.9752                 1.2886
 Frc consts  --     1.4969                 1.7135                 1.2710
 IR Inten    --     6.3919                 0.0770                 3.7719

                    25                     26                     27
                    A'                     A"                     A'
 Frequencies --  1321.4043              1329.5230              1390.1422
 Red. masses --     1.2498                 1.1294                 1.3803
 Frc consts  --     1.2858                 1.1763                 1.5716
 IR Inten    --     1.3502                 2.1464                 0.5249

                    28                     29                     30
                    A'                     A"                     A"
 Frequencies --  1396.6071              1406.1275              1438.3473
 Red. masses --     1.3000                 1.5614                 1.2318
 Frc consts  --     1.4940                 1.8189                 1.5015
 IR Inten    --     1.5495                 0.7248                 1.7075

                    31                     32                     33
                    A'                     A'                     A"
 Frequencies --  1439.8636              1443.8572              1508.8549
 Red. masses --     1.3138                 1.2187                 1.0728
 Frc consts  --     1.6048                 1.4968                 1.4390
 IR Inten    --     4.1273                 2.4104                 0.0101

                    34                     35                     36
                    A'                     A'                     A"
 Frequencies --  1518.1874              1526.2767              1530.2014
 Red. masses --     1.0628                 1.0420                 1.0582
 Frc consts  --     1.4433                 1.4302                 1.4599
 IR Inten    --     0.8455                 9.9564                 1.0951

                    37                     38                     39
                    A"                     A"                     A'
 Frequencies --  1530.8953              1537.0476              1538.1778
 Red. masses --     1.0484                 1.0538                 1.0693
 Frc consts  --     1.4477                 1.4669                 1.4906
 IR Inten    --     0.0422                 4.2921                 7.2417

                    40                     41                     42
                    A'                     A'                     A"
 Frequencies --  1547.0315              2988.6173              3014.9461
 Red. masses --     1.0442                 1.0818                 1.0604
 Frc consts  --     1.4725                 5.6930                 5.6793
 IR Inten    --     4.9966                12.9418                 0.5404

                    43                     44                     45
                    A'                     A'                     A"
 Frequencies --  3022.3530              3041.0040              3042.9479
 Red. masses --     1.0609                 1.0400                 1.0457
 Frc consts  --     5.7098                 5.6666                 5.7048
 IR Inten    --    67.6255                23.4740                39.0204

                    46                     47                     48
                    A'                     A"                     A'
 Frequencies --  3045.0913              3048.4313              3057.7579
 Red. masses --     1.0392                 1.0922                 1.1003
 Frc consts  --     5.6772                 5.9799                 6.0614
 IR Inten    --    11.1107                 3.3761                56.0334

                    49                     50                     51
                    A"                     A'                     A'
 Frequencies --  3105.9819              3106.3190              3106.9269
 Red. masses --     1.1017                 1.0996                 1.0989
 Frc consts  --     6.2621                 6.2515                 6.2498
 IR Inten    --    20.2423                 8.2236               100.2574

                    52                     53                     54
                    A"                     A'                     A"
 Frequencies --  3112.5751              3118.1104              3124.8464
 Red. masses --     1.1025                 1.1001                 1.1009
 Frc consts  --     6.2933                 6.3019                 6.3335
 IR Inten    --    24.5588                90.4238                21.8548

 - Thermochemistry -
 -------------------
 Temperature   298.150 Kelvin.  Pressure   1.00000 Atm.
 Atom     1 has atomic number  6 and mass  12.00000

 Molecular mass:    86.10955 amu.
 Principal axes and moments of inertia in atomic units:
                           1         2         3
     Eigenvalues --   277.68834 984.933291144.04187
           X            0.00000   0.76771   0.64080
           Y            0.00000  -0.64080   0.76771
           Z            1.00000   0.00000   0.00000
 This molecule is an asymmetric top.
 Rotational symmetry number  1.
 Rotational temperatures (Kelvin)      0.31191     0.08794     0.07571
 Rotational constants (GHZ):           6.49916     1.83235     1.57751
 Zero-point vibrational energy     498232.4 (Joules/Mol)
                                  119.08040 (Kcal/Mol)
 Warning -- explicit consideration of  10 degrees of freedom as
           vibrations may cause significant error
 Vibrational temperatures:    117.22   119.09   295.06   312.65   327.82
          (Kelvin)            392.27   457.31   558.00   631.70   653.94
                             1109.63  1118.73  1191.83  1278.36  1395.63
                             1413.58  1441.05  1494.54  1537.33  1537.89
                             1703.44  1706.35  1745.87  1861.61  1901.20
                             1912.88  2000.10  2009.40  2023.10  2069.46
                             2071.64  2077.39  2170.90  2184.33  2195.97
                             2201.62  2202.61  2211.47  2213.09  2225.83
                             4299.95  4337.83  4348.49  4375.32  4378.12
                             4381.20  4386.01  4399.43  4468.81  4469.29
                             4470.17  4478.30  4486.26  4495.95

 Zero-point correction=                           0.189767 (Hartree/Particle)
 Thermal correction to Energy=                    0.198116
 Thermal correction to Enthalpy=                  0.199060
 Thermal correction to Gibbs Free Energy=         0.157546
 Sum of electronic and zero-point Energies=           -236.893447
 Sum of electronic and thermal Energies=              -236.885097
 Sum of electronic and thermal Enthalpies=            -236.884153
 Sum of electronic and thermal Free Energies=         -236.925667

                     E (Thermal)             CV                S
                      KCal/Mol        Cal/Mol-Kelvin    Cal/Mol-Kelvin
 Total                  124.320             29.759             87.374
 Electronic               0.000              0.000              0.000
 Translational            0.889              2.981             39.272
 Rotational               0.889              2.981             27.239
 Vibrational            122.542             23.797             20.862
 Vibration     1          0.600              1.962              3.855
 Vibration     2          0.600              1.961              3.824
 Vibration     3          0.640              1.833              2.087
 Vibration     4          0.646              1.815              1.981
 Vibration     5          0.651              1.799              1.896
 Vibration     6          0.676              1.724              1.579
 Vibration     7          0.704              1.639              1.321
 Vibration     8          0.756              1.496              1.008
 Vibration     9          0.799              1.385              0.830
 Vibration    10          0.813              1.351              0.782

 Normal termination of Gaussian 09 at Tue Jan 23 15:10:44 2018.
