 Gaussian 09, Revision B.01,
 Gaussian 09:  EM64L-G09RevB.01 12-Aug-2010

 -----------------------
 #B3LYP/6-31G* fopt test
 -----------------------

 --------------------------------------------------
 AsymmetricEnantiomers/r-2-chlorobutane_rotated.xyz
 --------------------------------------------------
 Symbolic Z-matrix:
 Charge =  0 Multiplicity = 1

 SCF Done:  E(RB3LYP) =  -618.053928056     A.U. after   12 cycles
 SCF Done:  E(RB3LYP) =  -618.056545348     A.U. after   11 cycles
 SCF Done:  E(RB3LYP) =  -618.057019925     A.U. after   10 cycles
 SCF Done:  E(RB3LYP) =  -618.057069572     A.U. after   11 cycles
 SCF Done:  E(RB3LYP) =  -618.057080415     A.U. after    9 cycles
 SCF Done:  E(RB3LYP) =  -618.057081944     A.U. after    8 cycles
 Optimization completed.
    -- Stationary point found.

                         Standard orientation:
 ---------------------------------------------------------------------
 Center     Atomic      Atomic             Coordinates (Angstroms)
 Number     Number       Type             X           Y           Z
 ---------------------------------------------------------------------
      1          6           0       -0.259559    0.450548    0.358387
      2          6           0       -1.317101    1.483366   -0.009142
      3          1           0       -2.267656    1.272738    0.488497
      4          1           0       -1.488836    1.499153   -1.090387
      5          1           0       -0.977844    2.479710    0.301201
      6         17           0       -0.900030   -1.225613   -0.069226
      7          1           0       -0.127535    0.409984    1.443712
      8          6           0        1.086465    0.689227   -0.325749
      9          1           0        0.945926    0.628673   -1.412437
     10          6           0        2.213021   -0.245815    0.118747
     11          1           0        1.366490    1.729891   -0.104815
     12          1           0        1.980517   -1.287529   -0.121206
     13          1           0        2.381177   -0.178062    1.200587
     14          1           0        3.151306    0.016905   -0.381760
 ---------------------------------------------------------------------

 The electronic state is 1-A.
 Alpha  occ. eigenvalues -- -101.52189 -10.25111 -10.19655 -10.19035 -10.17865
 Alpha  occ. eigenvalues --   -9.43839  -7.20196  -7.19272  -7.19266  -0.85559
 Alpha  occ. eigenvalues --   -0.76850  -0.73187  -0.64141  -0.57971  -0.47840
 Alpha  occ. eigenvalues --   -0.44709  -0.43984  -0.42401  -0.38702  -0.36902
 Alpha  occ. eigenvalues --   -0.35601  -0.34906  -0.34267  -0.28812  -0.28737
 Alpha virt. eigenvalues --    0.02665   0.08658   0.11821   0.12312   0.15322
 Alpha virt. eigenvalues --    0.16010   0.16865   0.17544   0.17799   0.19235
 Alpha virt. eigenvalues --    0.22190   0.23365   0.24571   0.40211   0.44191

 Mulliken atomic charges:
              1
     1  C   -0.186598
     2  C   -0.434340
     3  H    0.168768
     4  H    0.165764
     5  H    0.152216
     6  Cl  -0.117333
     7  H    0.180822
     8  C   -0.242889
     9  H    0.155031
    10  C   -0.447635
    11  H    0.143370
    12  H    0.172687
    13  H    0.142976
    14  H    0.147159
 Sum of Mulliken atomic charges =   0.00000

 Dipole moment (field-independent basis, Debye):
    X=              0.8875    Y=              2.1179    Z=              0.3750  Tot=              2.3268
 Quadrupole moment (field-independent basis, Debye-Ang):
   XX=            -39.6683   YY=            -40.1437   ZZ=            -38.9637
   XY=             -1.3946   XZ=             -0.3157   YZ=              0.3260

 Normal termination of Gaussian 09 at Thu Jan  4 15:08:21 2018.
