 Gaussian 09, Revision B.01,
 Gaussian 09:  EM64L-G09RevB.01 12-Aug-2010

 -----------------------
 #B3LYP/6-31G* fopt test
 -----------------------

 --------------------------------------------------
 AsymmetricEnantiomers/s-2-chlorobutane_rotated.xyz
 --------------------------------------------------
 Symbolic Z-matrix:
 Charge =  0 Multiplicity = 1

 SCF Done:  E(RB3LYP) =  -618.053926185     A.U. after   12 cycles
 SCF Done:  E(RB3LYP) =  -618.056541631     A.U. after   11 cycles
 SCF Done:  E(RB3LYP) =  -618.057020328     A.U. after   10 cycles
 SCF Done:  E(RB3LYP) =  -618.057069862     A.U. after   11 cycles
 SCF Done:  E(RB3LYP) =  -618.057080412     A.U. after    9 cycles
 SCF Done:  E(RB3LYP) =  -618.057081943     A.U. after    8 cycles
 Optimization completed.
    -- Stationary point found.

                         Standard orientation:
 ---------------------------------------------------------------------
 Center     Atomic      Atomic             Coordinates (Angstroms)
 Number     Number       Type             X           Y           Z
 ---------------------------------------------------------------------
      1          6           0        0.259548    0.450553    0.358387
      2          6           0        1.317087    1.483377   -0.009138
      3          1           0        2.267637    1.272760    0.488512
      4          1           0        0.977820    2.479722    0.301196
      5          1           0        1.488832    1.499155   -1.090381
      6          1           0        0.127518    0.409985    1.443712
      7         17           0        0.900049   -1.225605   -0.069226
      8          6           0       -1.086473    0.689211   -0.325761
      9          1           0       -1.366509    1.729876   -0.104850
     10          6           0       -2.213027   -0.245829    0.118753
     11          1           0       -0.945926    0.628632   -1.412448
     12          1           0       -2.381179   -0.178056    1.200591
     13          1           0       -1.980522   -1.287547   -0.121183
     14          1           0       -3.151312    0.016885   -0.381758
 ---------------------------------------------------------------------

 The electronic state is 1-A.
 Alpha  occ. eigenvalues -- -101.52189 -10.25111 -10.19655 -10.19035 -10.17865
 Alpha  occ. eigenvalues --   -9.43839  -7.20196  -7.19272  -7.19266  -0.85559
 Alpha  occ. eigenvalues --   -0.76850  -0.73187  -0.64141  -0.57971  -0.47840
 Alpha  occ. eigenvalues --   -0.44709  -0.43984  -0.42401  -0.38702  -0.36902
 Alpha  occ. eigenvalues --   -0.35601  -0.34906  -0.34267  -0.28812  -0.28737
 Alpha virt. eigenvalues --    0.02665   0.08658   0.11821   0.12312   0.15322
 Alpha virt. eigenvalues --    0.16010   0.16865   0.17544   0.17799   0.19235
 Alpha virt. eigenvalues --    0.22190   0.23365   0.24571   0.40211   0.44191

 Mulliken atomic charges:
              1
     1  C   -0.186597
     2  C   -0.434340
     3  H    0.168769
     4  H    0.152216
     5  H    0.165765
     6  H    0.180822
     7  Cl  -0.117337
     8  C   -0.242889
     9  H    0.143371
    10  C   -0.447635
    11  H    0.155032
    12  H    0.142976
    13  H    0.172687
    14  H    0.147159
 Sum of Mulliken atomic charges =   0.00000

 Dipole moment (field-independent basis, Debye):
    X=             -0.8875    Y=              2.1179    Z=              0.3750  Tot=              2.3268
 Quadrupole moment (field-independent basis, Debye-Ang):
   XX=            -39.6683   YY=            -40.1437   ZZ=            -38.9637
   XY=              1.3946   XZ=              0.3157   YZ=              0.3260

 Normal termination of Gaussian 09 at Thu Jan  4 15:09:29 2018.
