 Gaussian 09, Revision B.01,
 Gaussian 09:  EM64L-G09RevB.01 12-Aug-2010

 -----------------------
 #B3LYP/6-31G* fopt test
 -----------------------

 --------------------------------
 RotationSameMolecule/Porphin.xyz
 --------------------------------
 Symbolic Z-matrix:
 Charge =  0 Multiplicity = 1

 SCF Done:  E(RB3LYP) =  -988.164579320     A.U. after   16 cycles
 SCF Done:  E(RB3LYP) =  -988.181586456     A.U. after   12 cycles
 SCF Done:  E(RB3LYP) =  -988.182602778     A.U. after   11 cycles
 SCF Done:  E(RB3LYP) =  -988.182666824     A.U. after    8 cycles
 Optimization completed.
    -- Stationary point found.

                         Standard orientation:
 ---------------------------------------------------------------------
 Center     Atomic      Atomic             Coordinates (Angstroms)
 Number     Number       Type             X           Y           Z
 ---------------------------------------------------------------------
      1          6           0        0.680999    4.289238    0.000000
      2          6           0       -0.680999    4.289238    0.000000
      3          6           0       -1.080364    2.884041    0.000000
      4          6           0        1.080364    2.884041    0.000000
      5          7           0        0.000000    2.065490    0.000000
      6          6           0        2.405447    2.405447    0.000000
      7          6           0        2.884041    1.080364    0.000000
      8          7           0        2.065490    0.000000    0.000000
      9          6           0        2.884041   -1.080364    0.000000
     10          6           0        4.289238    0.680999    0.000000
     11          6           0        4.289238   -0.680999    0.000000
     12          6           0        2.405447   -2.405447    0.000000
     13          6           0        1.080364   -2.884041    0.000000
     14          7           0        0.000000   -2.065490    0.000000
     15          6           0       -0.680999   -4.289238    0.000000
     16          6           0        0.680999   -4.289238    0.000000
     17          6           0       -2.884041   -1.080364    0.000000
     18          7           0       -2.065490    0.000000    0.000000
     19          6           0       -2.884041    1.080364    0.000000
     20          6           0       -4.289238    0.680999    0.000000
     21          6           0       -4.289238   -0.680999    0.000000
     22          6           0       -2.405447    2.405447    0.000000
     23          6           0       -2.405447   -2.405447    0.000000
     24          6           0       -1.080364   -2.884041    0.000000
     25          1           0        1.346846    5.144018    0.000000
     26          1           0       -1.346846    5.144018    0.000000
     27          1           0        3.176479    3.176479    0.000000
     28          1           0        5.144018    1.346846    0.000000
     29          1           0        5.144018   -1.346846    0.000000
     30          1           0        3.176479   -3.176479    0.000000
     31          1           0       -1.346846   -5.144018    0.000000
     32          1           0        1.346846   -5.144018    0.000000
     33          1           0       -5.144018    1.346846    0.000000
     34          1           0       -5.144018   -1.346846    0.000000
     35          1           0       -3.176479    3.176479    0.000000
     36          1           0       -3.176479   -3.176479    0.000000
 ---------------------------------------------------------------------

 The electronic state is 1-A1G.
 Alpha  occ. eigenvalues --  -14.31491 -14.31491 -14.31491 -14.31490 -10.23420
 Alpha  occ. eigenvalues --  -10.23420 -10.23420 -10.23420 -10.21681 -10.21680
 Alpha  occ. eigenvalues --  -10.21680 -10.21680 -10.21680 -10.21679 -10.21679
 Alpha  occ. eigenvalues --  -10.21679 -10.18605 -10.18605 -10.18605 -10.18605
 Alpha  occ. eigenvalues --  -10.18534 -10.18534 -10.18534 -10.18534  -0.95485
 Alpha  occ. eigenvalues --   -0.94758  -0.94758  -0.93889  -0.81498  -0.78934
 Alpha  occ. eigenvalues --   -0.78934  -0.75904  -0.75600  -0.75600  -0.75299
 Alpha  occ. eigenvalues --   -0.74542  -0.70959  -0.65308  -0.65308  -0.58951
 Alpha  occ. eigenvalues --   -0.57612  -0.56744  -0.56541  -0.56541  -0.54526
 Alpha  occ. eigenvalues --   -0.51810  -0.50951  -0.50951  -0.49867  -0.49813
 Alpha  occ. eigenvalues --   -0.49813  -0.45318  -0.43029  -0.41862  -0.41862
 Alpha  occ. eigenvalues --   -0.41549  -0.41460  -0.40579  -0.40202  -0.40202
 Alpha  occ. eigenvalues --   -0.38498  -0.38498  -0.37937  -0.37895  -0.37025
 Alpha  occ. eigenvalues --   -0.37025  -0.36718  -0.36343  -0.32251  -0.28479
 Alpha  occ. eigenvalues --   -0.27795  -0.27795  -0.25114  -0.25114  -0.24741
 Alpha  occ. eigenvalues --   -0.23318  -0.23255  -0.23255  -0.22332  -0.19018
 Alpha virt. eigenvalues --   -0.15483  -0.07526  -0.07526  -0.02465   0.06615
 Alpha virt. eigenvalues --    0.07169   0.07169   0.07926   0.09289   0.10685
 Alpha virt. eigenvalues --    0.10685   0.12304   0.12548   0.13643   0.14228

 Mulliken atomic charges:
              1
     1  C   -0.181482
     2  C   -0.181482
     3  C    0.308140
     4  C    0.308140
     5  N   -0.453711
     6  C   -0.218310
     7  C    0.308140
     8  N   -0.453711
     9  C    0.308140
    10  C   -0.181482
    11  C   -0.181482
    12  C   -0.218310
    13  C    0.308140
    14  N   -0.453711
    15  C   -0.181482
    16  C   -0.181482
    17  C    0.308140
    18  N   -0.453711
    19  C    0.308140
    20  C   -0.181482
    21  C   -0.181482
    22  C   -0.218310
    23  C   -0.218310
    24  C    0.308140
    25  H    0.132239
    26  H    0.132239
    27  H    0.154229
    28  H    0.132239
    29  H    0.132239
    30  H    0.154229
    31  H    0.132239
    32  H    0.132239
    33  H    0.132239
    34  H    0.132239
    35  H    0.154229
    36  H    0.154229
 Sum of Mulliken atomic charges =   0.00000

 Dipole moment (field-independent basis, Debye):
    X=              0.0000    Y=              0.0000    Z=              0.0000  Tot=              0.0000
 Quadrupole moment (field-independent basis, Debye-Ang):
   XX=           -104.0540   YY=           -104.0540   ZZ=           -139.7282
   XY=              0.0000   XZ=              0.0000   YZ=              0.0000

 1\1\GINC-TERMINUS\FOpt\RB3LYP\6-31G(d)\C20H12N4\FRODOX\04-Jan-2018\0\\
 #B3LYP/6-31G* fopt test\\RotationSameMolecule/Porphin.xyz\\0,1\C,0.680
 998543,-4.2892381715,0.\C,-0.680998543,-4.2892381715,0.\C,-1.080364227
 5,-2.8840412278,0.\C,1.0803642275,-2.8840412278,0.\N,0.,-2.0654896129,
 0.\C,2.4054469066,-2.4054469066,0.\C,2.8840412278,-1.0803642275,0.\N,2
 .0654896129,0.,0.\C,2.8840412278,1.0803642275,0.\C,4.2892381715,-0.680
 998543,0.\C,4.2892381715,0.680998543,0.\C,2.4054469066,2.4054469066,0.
 \C,1.0803642275,2.8840412278,0.\N,0.,2.0654896129,0.\C,-0.680998543,4.

 Normal termination of Gaussian 09 at Thu Jan  4 15:15:10 2018.
