 Gaussian 09, Revision B.01,
 Gaussian 09:  EM64L-G09RevB.01 12-Aug-2010

 -----------------------
 #B3LYP/6-31G* fopt test
 -----------------------

 ------------------------------------------------------
 RotationSameMolecule/Tetrabenzoporphyrin_rotated02.xyz
 ------------------------------------------------------
 Symbolic Z-matrix:
 Charge =  0 Multiplicity = 1

 SCF Done:  E(RB3LYP) =  -1604.12509834     A.U. after   14 cycles
 SCF Done:  E(RB3LYP) =  -1604.15478505     A.U. after   13 cycles
 SCF Done:  E(RB3LYP) =  -1604.15781072     A.U. after   12 cycles
 SCF Done:  E(RB3LYP) =  -1604.15788131     A.U. after    9 cycles
 SCF Done:  E(RB3LYP) =  -1604.15788879     A.U. after    8 cycles
 Optimization completed.
    -- Stationary point found.

                         Standard orientation:
 ---------------------------------------------------------------------
 Center     Atomic      Atomic             Coordinates (Angstroms)
 Number     Number       Type             X           Y           Z
 ---------------------------------------------------------------------
      1          6           0       -1.733598    2.208289    3.319831
      2          6           0       -0.633645    1.627221    3.980139
      3          6           0        0.062416    0.834062    2.962362
      4          6           0       -1.652456    1.739783    1.932976
      5          7           0       -0.572655    0.926170    1.760007
      6          6           0       -2.572659    2.095150    0.941223
      7          6           0       -2.589479    1.711500   -0.392558
      8          7           0       -1.678458    0.886455   -1.007152
      9          6           0       -1.955990    0.688011   -2.338218
     10          6           0       -3.547027    2.084997   -1.412213
     11          6           0       -3.154399    1.450778   -2.617861
     12          6           0       -1.220292   -0.092517   -3.219088
     13          6           0       -0.062416   -0.834062   -2.962362
     14          7           0        0.572655   -0.926170   -1.760007
     15          6           0        1.733598   -2.208289   -3.319831
     16          6           0        0.633645   -1.627221   -3.980139
     17          6           0        2.589479   -1.711500    0.392558
     18          7           0        1.678458   -0.886455    1.007152
     19          6           0        1.955990   -0.688011    2.338218
     20          6           0        3.154399   -1.450778    2.617861
     21          6           0        3.547027   -2.084997    1.412213
     22          6           0        1.220292    0.092517    3.219088
     23          6           0        2.572659   -2.095150   -0.941223
     24          6           0        1.652456   -1.739783   -1.932976
     25          6           0       -2.621952    3.039086    4.007124
     26          6           0       -0.406469    1.868639    5.337304
     27          1           0       -3.379499    2.754923    1.245878
     28          1           0       -0.885214    0.469228   -0.528039
     29          6           0       -4.687522    2.900272   -1.375412
     30          6           0       -3.900564    1.629129   -3.791751
     31          1           0       -1.598511   -0.126662   -4.236408
     32          6           0        2.621952   -3.039086   -4.007124
     33          6           0        0.406469   -1.868639   -5.337304
     34          1           0        0.885214   -0.469228    0.528039
     35          6           0        3.900564   -1.629129    3.791751
     36          6           0        4.687522   -2.900272    1.375412
     37          1           0        1.598511    0.126662    4.236408
     38          1           0        3.379499   -2.754923   -1.245878
     39          6           0       -5.418252    3.069372   -2.543265
     40          6           0       -5.027455    2.437965   -3.743326
     41          6           0        2.392515   -3.278044   -5.361347
     42          6           0        1.294758   -2.698105   -6.020359
     43          6           0        5.027455   -2.437965    3.743326
     44          6           0        5.418252   -3.069372    2.543265
     45          6           0       -2.392515    3.278044    5.361347
     46          6           0       -1.294758    2.698105    6.020359
     47          1           0       -3.474440    3.493225    3.508210
     48          1           0        0.438920    1.425867    5.858160
     49          1           0       -4.996086    3.390449   -0.456145
     50          1           0       -3.607529    1.147357   -4.720500
     51          1           0        3.474440   -3.493225   -3.508210
     52          1           0       -0.438920   -1.425867   -5.858160
     53          1           0        3.607529   -1.147357    4.720500
     54          1           0        4.996086   -3.390449    0.456145
     55          1           0       -6.305113    3.696822   -2.536624
     56          1           0       -5.619745    2.589363   -4.641386
     57          1           0        3.070021   -3.920892   -5.916867
     58          1           0        1.138310   -2.900412   -7.076531
     59          1           0        5.619745   -2.589363    4.641386
     60          1           0        6.305113   -3.696822    2.536624
     61          1           0       -3.070021    3.920892    5.916867
     62          1           0       -1.138310    2.900412    7.076531
 ---------------------------------------------------------------------

 The electronic state is 1-AG.
 Alpha  occ. eigenvalues --  -14.38129 -14.38129 -14.31414 -14.31414 -10.23833
 Alpha  occ. eigenvalues --  -10.23833 -10.23831 -10.23831 -10.21852 -10.21852
 Alpha  occ. eigenvalues --  -10.21852 -10.21852 -10.20254 -10.20254 -10.20215
 Alpha  occ. eigenvalues --  -10.20215 -10.20166 -10.20166 -10.20158 -10.20158
 Alpha  occ. eigenvalues --  -10.19872 -10.19872 -10.19824 -10.19824 -10.19585
 Alpha  occ. eigenvalues --  -10.19585 -10.19584 -10.19584 -10.19242 -10.19242
 Alpha  occ. eigenvalues --  -10.19242 -10.19242 -10.18972 -10.18972 -10.18922
 Alpha  occ. eigenvalues --  -10.18922 -10.18682 -10.18682 -10.18631 -10.18631
 Alpha  occ. eigenvalues --   -0.99040  -0.98921  -0.94372  -0.94166  -0.85890
 Alpha  occ. eigenvalues --   -0.85882  -0.84354  -0.84307  -0.82106  -0.80271
 Alpha  occ. eigenvalues --   -0.79055  -0.77136  -0.76940  -0.76352  -0.74842
 Alpha  occ. eigenvalues --   -0.74454  -0.74347  -0.74308  -0.73945  -0.73940
 Alpha  occ. eigenvalues --   -0.70137  -0.65923  -0.65732  -0.65139  -0.64282
 Alpha  occ. eigenvalues --   -0.61667  -0.61648  -0.60673  -0.59751  -0.58738
 Alpha  occ. eigenvalues --   -0.58642  -0.58304  -0.57239  -0.56185  -0.56052
 Alpha  occ. eigenvalues --   -0.53584  -0.51914  -0.51525  -0.50800  -0.50192
 Alpha  occ. eigenvalues --   -0.49981  -0.49115  -0.47426  -0.47376  -0.46346
 Alpha  occ. eigenvalues --   -0.45248  -0.45204  -0.44819  -0.44610  -0.44325
 Alpha  occ. eigenvalues --   -0.44189  -0.44146  -0.44065  -0.43914  -0.43535
 Alpha  occ. eigenvalues --   -0.43012  -0.41497  -0.41407  -0.41029  -0.41020
 Alpha  occ. eigenvalues --   -0.40970  -0.40288  -0.40287  -0.39892  -0.38052
 Alpha  occ. eigenvalues --   -0.37871  -0.36700  -0.36377  -0.35758  -0.35701
 Alpha  occ. eigenvalues --   -0.35642  -0.35179  -0.35080  -0.34316  -0.34156
 Alpha  occ. eigenvalues --   -0.33585  -0.33559  -0.33429  -0.33102  -0.29678
 Alpha  occ. eigenvalues --   -0.28912  -0.27147  -0.26834  -0.26820  -0.25396
 Alpha  occ. eigenvalues --   -0.25351  -0.24772  -0.24496  -0.23762  -0.23406
 Alpha  occ. eigenvalues --   -0.22995  -0.19417  -0.17253
 Alpha virt. eigenvalues --   -0.08323  -0.07768  -0.02673  -0.02261  -0.01774
 Alpha virt. eigenvalues --   -0.01100  -0.00971   0.03279   0.03446   0.03846
 Alpha virt. eigenvalues --    0.06283   0.07713   0.08343   0.08756   0.09059

 Mulliken atomic charges:
              1
     1  C    0.071517
     2  C    0.071019
     3  C    0.304612
     4  C    0.304224
     5  N   -0.692969
     6  C   -0.261342
     7  C    0.369249
     8  N   -0.802782
     9  C    0.370325
    10  C    0.048713
    11  C    0.048263
    12  C   -0.261410
    13  C    0.304612
    14  N   -0.692969
    15  C    0.071517
    16  C    0.071019
    17  C    0.369249
    18  N   -0.802782
    19  C    0.370325
    20  C    0.048263
    21  C    0.048713
    22  C   -0.261410
    23  C   -0.261342
    24  C    0.304224
    25  C   -0.199296
    26  C   -0.199344
    27  H    0.138627
    28  H    0.409346
    29  C   -0.187584
    30  C   -0.187657
    31  H    0.138596
    32  C   -0.199296
    33  C   -0.199344
    34  H    0.409346
    35  C   -0.187657
    36  C   -0.187584
    37  H    0.138596
    38  H    0.138627
    39  C   -0.135661
    40  C   -0.135644
    41  C   -0.135267
    42  C   -0.135170
    43  C   -0.135644
    44  C   -0.135661
    45  C   -0.135267
    46  C   -0.135170
    47  H    0.129230
    48  H    0.129245
    49  H    0.137964
    50  H    0.137996
    51  H    0.129230
    52  H    0.129245
    53  H    0.137996
    54  H    0.137964
    55  H    0.134275
    56  H    0.134275
    57  H    0.128335
    58  H    0.128317
    59  H    0.134275
    60  H    0.134275
    61  H    0.128335
    62  H    0.128317
 Sum of Mulliken atomic charges =   0.00000

 Dipole moment (field-independent basis, Debye):
    X=              0.0000    Y=              0.0000    Z=              0.0000  Tot=              0.0000
 Quadrupole moment (field-independent basis, Debye-Ang):
   XX=           -199.6175   YY=           -219.9211   ZZ=           -195.5768
   XY=            -23.5654   XZ=             11.5297   YZ=              4.3852

 1\1\GINC-TERMINUS\FOpt\RB3LYP\6-31G(d)\C36H22N4\FRODOX\04-Jan-2018\0\\
 #B3LYP/6-31G* fopt test\\RotationSameMolecule/Tetrabenzoporphyrin_rota
 ted02.xyz\\0,1\C,-1.7335982043,2.2082888105,3.3198309368\C,-0.63364481
 84,1.6272205571,3.9801390934\C,0.0624158238,0.8340616713,2.9623622991\
 C,-1.6524555845,1.7397834633,1.9329760492\N,-0.5726546167,0.9261703012
 ,1.7600066159\C,-2.5726585208,2.095150327,0.9412232222\C,-2.5894788872
 ,1.7114998281,-0.3925583877\N,-1.6784575627,0.8864552309,-1.0071515147
 \C,-1.9559899956,0.6880111479,-2.3382181629\C,-3.5470273304,2.08499707

 Normal termination of Gaussian 09 at Thu Jan  4 15:30:31 2018.
