 Gaussian 09, Revision B.01,
 Gaussian 09:  EM64L-G09RevB.01 12-Aug-2010

 -----------------------
 #B3LYP/6-31G* fopt test
 -----------------------

 ----------------------------------------------------
 RotationSameMolecule/Tetrabenzoporphyrin_rotated.xyz
 ----------------------------------------------------
 Symbolic Z-matrix:
 Charge =  0 Multiplicity = 1

 SCF Done:  E(RB3LYP) =  -1604.12516895     A.U. after   14 cycles
 SCF Done:  E(RB3LYP) =  -1604.15483902     A.U. after   13 cycles
 SCF Done:  E(RB3LYP) =  -1604.15786129     A.U. after   12 cycles
 SCF Done:  E(RB3LYP) =  -1604.15793184     A.U. after    9 cycles
 SCF Done:  E(RB3LYP) =  -1604.15793928     A.U. after    8 cycles
 Optimization completed.
    -- Stationary point found.

                         Standard orientation:
 ---------------------------------------------------------------------
 Center     Atomic      Atomic             Coordinates (Angstroms)
 Number     Number       Type             X           Y           Z
 ---------------------------------------------------------------------
      1          6           0        0.000000    4.289148    0.704180
      2          6           0        0.000000    4.289148   -0.704180
      3          6           0        0.000000    2.876898   -1.097767
      4          6           0        0.000000    2.876898    1.097767
      5          7           0        0.000000    2.068940    0.000000
      6          6           0        0.000000    2.445479    2.428370
      7          6           0        0.000000    1.143889    2.910460
      8          7           0        0.000000    0.000000    2.149113
      9          6           0        0.000000   -1.143889    2.910460
     10          6           0        0.000000    0.708888    4.291338
     11          6           0        0.000000   -0.708888    4.291338
     12          6           0        0.000000   -2.445479    2.428370
     13          6           0        0.000000   -2.876898    1.097767
     14          7           0        0.000000   -2.068940    0.000000
     15          6           0        0.000000   -4.289148   -0.704180
     16          6           0        0.000000   -4.289148    0.704180
     17          6           0        0.000000   -1.143889   -2.910460
     18          7           0        0.000000    0.000000   -2.149113
     19          6           0        0.000000    1.143889   -2.910460
     20          6           0        0.000000    0.708888   -4.291338
     21          6           0        0.000000   -0.708888   -4.291338
     22          6           0        0.000000    2.445479   -2.428370
     23          6           0        0.000000   -2.445479   -2.428370
     24          6           0        0.000000   -2.876898   -1.097767
     25          6           0        0.000000    5.489852    1.418367
     26          6           0        0.000000    5.489852   -1.418367
     27          1           0        0.000000    3.222214    3.187179
     28          1           0        0.000000    0.000000    1.132807
     29          6           0        0.000000    1.420754    5.499628
     30          6           0        0.000000   -1.420754    5.499628
     31          1           0        0.000000   -3.222214    3.187179
     32          6           0        0.000000   -5.489852   -1.418367
     33          6           0        0.000000   -5.489852    1.418367
     34          1           0        0.000000    0.000000   -1.132807
     35          6           0        0.000000    1.420754   -5.499628
     36          6           0        0.000000   -1.420754   -5.499628
     37          1           0        0.000000    3.222214   -3.187179
     38          1           0        0.000000   -3.222214   -3.187179
     39          6           0        0.000000    0.705600    6.689179
     40          6           0        0.000000   -0.705600    6.689179
     41          6           0        0.000000   -6.686320   -0.702783
     42          6           0        0.000000   -6.686320    0.702783
     43          6           0        0.000000    0.705600   -6.689179
     44          6           0        0.000000   -0.705600   -6.689179
     45          6           0        0.000000    6.686320    0.702783
     46          6           0        0.000000    6.686320   -0.702783
     47          1           0        0.000000    5.502808    2.505443
     48          1           0        0.000000    5.502808   -2.505443
     49          1           0        0.000000    2.507225    5.509713
     50          1           0        0.000000   -2.507225    5.509713
     51          1           0        0.000000   -5.502808   -2.505443
     52          1           0        0.000000   -5.502808    2.505443
     53          1           0        0.000000    2.507225   -5.509713
     54          1           0        0.000000   -2.507225   -5.509713
     55          1           0        0.000000    1.237545    7.636429
     56          1           0        0.000000   -1.237545    7.636429
     57          1           0        0.000000   -7.632765   -1.236754
     58          1           0        0.000000   -7.632765    1.236754
     59          1           0        0.000000    1.237545   -7.636429
     60          1           0        0.000000   -1.237545   -7.636429
     61          1           0        0.000000    7.632765    1.236754
     62          1           0        0.000000    7.632765   -1.236754
 ---------------------------------------------------------------------

 The electronic state is 1-AG.
 Alpha  occ. eigenvalues --  -14.38128 -14.38127 -14.31417 -14.31417 -10.23831
 Alpha  occ. eigenvalues --  -10.23831 -10.23831 -10.23831 -10.21854 -10.21853
 Alpha  occ. eigenvalues --  -10.21853 -10.21853 -10.20253 -10.20253 -10.20215
 Alpha  occ. eigenvalues --  -10.20215 -10.20166 -10.20166 -10.20158 -10.20158
 Alpha  occ. eigenvalues --  -10.19872 -10.19872 -10.19824 -10.19824 -10.19586
 Alpha  occ. eigenvalues --  -10.19586 -10.19586 -10.19586 -10.19242 -10.19242
 Alpha  occ. eigenvalues --  -10.19241 -10.19241 -10.18972 -10.18972 -10.18921
 Alpha  occ. eigenvalues --  -10.18921 -10.18681 -10.18681 -10.18630 -10.18630
 Alpha  occ. eigenvalues --   -0.99042  -0.98923  -0.94370  -0.94164  -0.85890
 Alpha  occ. eigenvalues --   -0.85881  -0.84355  -0.84308  -0.82106  -0.80271
 Alpha  occ. eigenvalues --   -0.79054  -0.77136  -0.76940  -0.76352  -0.74842
 Alpha  occ. eigenvalues --   -0.74454  -0.74349  -0.74310  -0.73945  -0.73939
 Alpha  occ. eigenvalues --   -0.70136  -0.65923  -0.65732  -0.65139  -0.64282
 Alpha  occ. eigenvalues --   -0.61668  -0.61650  -0.60673  -0.59751  -0.58737
 Alpha  occ. eigenvalues --   -0.58641  -0.58303  -0.57238  -0.56185  -0.56052
 Alpha  occ. eigenvalues --   -0.53585  -0.51914  -0.51526  -0.50799  -0.50192
 Alpha  occ. eigenvalues --   -0.49980  -0.49115  -0.47426  -0.47375  -0.46345
 Alpha  occ. eigenvalues --   -0.45248  -0.45205  -0.44821  -0.44609  -0.44325
 Alpha  occ. eigenvalues --   -0.44189  -0.44146  -0.44066  -0.43914  -0.43535
 Alpha  occ. eigenvalues --   -0.43011  -0.41498  -0.41407  -0.41026  -0.41020
 Alpha  occ. eigenvalues --   -0.40970  -0.40288  -0.40287  -0.39891  -0.38052
 Alpha  occ. eigenvalues --   -0.37872  -0.36700  -0.36378  -0.35758  -0.35702
 Alpha  occ. eigenvalues --   -0.35642  -0.35179  -0.35080  -0.34316  -0.34156
 Alpha  occ. eigenvalues --   -0.33584  -0.33559  -0.33428  -0.33102  -0.29678
 Alpha  occ. eigenvalues --   -0.28912  -0.27147  -0.26837  -0.26824  -0.25395
 Alpha  occ. eigenvalues --   -0.25350  -0.24772  -0.24496  -0.23761  -0.23406
 Alpha  occ. eigenvalues --   -0.22995  -0.19417  -0.17253
 Alpha virt. eigenvalues --   -0.08322  -0.07770  -0.02674  -0.02262  -0.01774
 Alpha virt. eigenvalues --   -0.01100  -0.00971   0.03280   0.03447   0.03846
 Alpha virt. eigenvalues --    0.06284   0.07712   0.08343   0.08756   0.09059

 Mulliken atomic charges:
              1
     1  C    0.071413
     2  C    0.071413
     3  C    0.304342
     4  C    0.304342
     5  N   -0.693034
     6  C   -0.261299
     7  C    0.369723
     8  N   -0.802879
     9  C    0.369723
    10  C    0.048582
    11  C    0.048582
    12  C   -0.261299
    13  C    0.304342
    14  N   -0.693034
    15  C    0.071413
    16  C    0.071413
    17  C    0.369723
    18  N   -0.802879
    19  C    0.369723
    20  C    0.048582
    21  C    0.048582
    22  C   -0.261299
    23  C   -0.261299
    24  C    0.304342
    25  C   -0.199392
    26  C   -0.199392
    27  H    0.138628
    28  H    0.409372
    29  C   -0.187704
    30  C   -0.187704
    31  H    0.138628
    32  C   -0.199392
    33  C   -0.199392
    34  H    0.409372
    35  C   -0.187704
    36  C   -0.187704
    37  H    0.138628
    38  H    0.138628
    39  C   -0.135640
    40  C   -0.135640
    41  C   -0.135213
    42  C   -0.135213
    43  C   -0.135640
    44  C   -0.135640
    45  C   -0.135213
    46  C   -0.135213
    47  H    0.129243
    48  H    0.129243
    49  H    0.137992
    50  H    0.137992
    51  H    0.129243
    52  H    0.129243
    53  H    0.137992
    54  H    0.137992
    55  H    0.134274
    56  H    0.134274
    57  H    0.128321
    58  H    0.128321
    59  H    0.134274
    60  H    0.134274
    61  H    0.128321
    62  H    0.128321
 Sum of Mulliken atomic charges =   0.00000

 Dipole moment (field-independent basis, Debye):
    X=              0.0000    Y=              0.0000    Z=              0.0000  Tot=              0.0000
 Quadrupole moment (field-independent basis, Debye-Ang):
   XX=           -237.8508   YY=           -197.0108   ZZ=           -180.2480
   XY=              0.0000   XZ=              0.0000   YZ=              0.0000

 1\1\GINC-TERMINUS\FOpt\RB3LYP\6-31G(d)\C36H22N4\FRODOX\05-Jan-2018\0\\
 #B3LYP/6-31G* fopt test\\RotationSameMolecule/Tetrabenzoporphyrin_rota
 ted.xyz\\0,1\C,-4.2891484335,0.0000009343,-0.704179567\C,-4.2891484335
 ,-0.0000009343,0.704179567\C,-2.8768978614,-0.0000014565,1.09776724\C,
 -2.8768978614,0.0000014565,-1.09776724\N,-2.0689404148,0.,0.\C,-2.4454
 793748,0.0000032219,-2.4283697849\C,-1.1438894568,0.0000038616,-2.9104
 604531\N,0.,0.0000028514,-2.1491127327\C,1.1438894568,0.0000038616,-2.
 9104604531\C,-0.7088882427,0.0000056937,-4.2913381431\C,0.7088882427,0

 Normal termination of Gaussian 09 at Fri Jan  5 13:34:21 2018.
